13
# Structure 22   	  Energy =  -4.6365 eV/atom
Au  14.99695508  13.17605710  11.77183844
Au  12.72827250  10.49316853  8.49607245
Au  8.89540741  10.36840810  12.43899899
Au  12.75844818  12.53291494  10.34006210
Rh  14.16874672  10.69353070  10.89609701
Rh  10.46197031  13.19157597  9.47116716
Rh  11.51715753  14.63293175  11.22176879
Rh  12.31329070  12.85433364  12.73927320
Rh  11.52559711  10.44698701  12.88126456
Rh  13.88312364  11.09903728  13.27248646
Rh  12.31374754  9.13222018  10.92468056
Rh  9.90262611  12.80048646  11.94566713
Rh  10.82306867  10.95397573  10.47267624
13
# Structure 2   	  Energy =  -4.6365 eV/atom
Au  11.81626953  12.27848796  8.18492586
Au  9.38401013  8.65547754  11.19373175
Au  14.52134730  12.86899387  12.53667243
Au  9.06817407  12.59478755  10.85228855
Rh  9.69483329  10.95611610  12.62027734
Rh  10.27469766  13.42931670  12.92798047
Rh  11.40698368  13.38785743  10.61384968
Rh  10.93388243  10.81982809  10.33306634
Rh  12.10370692  11.79519649  12.54536716
Rh  11.71988194  9.25454249  12.29114227
Rh  13.42921112  11.71134959  10.23837282
Rh  14.10924024  10.18213424  12.27382056
Rh  13.09052556  9.24519095  10.18265879
13
# Structure 14   	  Energy =  -4.6180 eV/atom
Au  8.84187771  10.71856848  10.51673040
Au  10.55048084  13.74016304  12.63425299
Au  15.63613649  12.14425603  12.42582927
Au  11.93420821  8.89133234  12.32293737
Rh  11.37422369  9.99144303  10.19560299
Rh  10.74095244  11.01230459  12.52071332
Rh  10.90839106  12.50247024  10.24004207
Rh  12.95502461  13.80368524  9.75125610
Rh  14.33601759  11.81481003  10.12038653
Rh  12.45295509  11.49901981  8.47482026
Rh  13.96896808  10.08889987  12.10520784
Rh  13.67574726  9.45124261  9.67867958
Rh  12.74725981  12.27953942  12.01065378
13
# Structure 3   	  Energy =  -4.6150 eV/atom
Au  13.45754932  8.73613283  10.94332963
Au  14.89328503  13.44498642  10.46169741
Au  9.28376481  9.80410234  9.27095191
Au  13.60851825  11.36724103  12.06833637
Rh  11.52700765  10.62019292  10.69462444
Rh  14.12463886  10.98470005  9.71756219
Rh  11.06213640  14.69741019  9.74974276
Rh  9.98966820  12.37268689  9.56458073
Rh  9.90250189  13.56905826  11.74848953
Rh  12.45013201  13.58031156  11.68548451
Rh  12.44678761  12.69268042  9.36801022
Rh  11.17113549  11.75998848  12.95197811
Rh  9.17146842  11.01422511  11.69067214
13
# Structure 12   	  Energy =  -4.6026 eV/atom
Au  10.86696019  13.44816468  13.60783046
Au  8.75928071  9.32068661  11.17570635
Au  9.98764713  13.75348379  10.97633028
Au  9.88105797  11.30109664  9.75314446
Rh  10.66676083  11.19723202  12.13758293
Rh  13.00437720  10.00447729  12.66250518
Rh  11.32167565  8.78155801  11.42202996
Rh  12.50578047  12.90079901  11.57119296
Rh  14.62111422  11.86060115  12.35652979
Rh  14.64391061  9.92402327  10.71982986
Rh  14.22097698  12.27941381  9.81196867
Rh  12.27581982  10.65801214  10.12257395
Rh  11.75613822  12.88327527  9.06577343
13
# Structure 5   	  Energy =  -4.6365 eV/atom
Au  13.30990809  14.19721700  11.82514986
Au  8.57576335  9.89773752  10.53037572
Au  9.69706242  10.89608841  12.92061807
Au  10.74661073  13.45463160  12.28437053
Rh  14.23142041  10.09690664  12.42764398
Rh  11.85778690  9.21188514  12.37888904
Rh  13.27993774  9.32576114  10.17964820
Rh  13.64061305  11.76671598  10.58654213
Rh  12.29698502  11.65557300  12.75790068
Rh  11.67198943  13.19280790  9.81170911
Rh  9.40734116  12.46477586  10.50010480
Rh  11.13603790  10.64558398  10.46733362
Rh  12.46073236  11.23311582  8.43377922
13
# Structure 9   	  Energy =  -4.6365 eV/atom
Au  10.62921755  13.96723945  11.14969274
Au  12.50251810  13.60216709  13.17968031
Au  9.46009418  9.71540103  13.43662582
Au  13.38751648  12.69613464  10.79543188
Rh  13.52801685  10.99987103  12.48588512
Rh  11.31265699  11.83174602  9.52828260
Rh  13.50583020  10.93545855  9.09820577
Rh  8.97151240  12.59067030  9.46184616
Rh  8.79041951  11.64335831  11.71045909
Rh  9.51148571  10.14559170  9.79688011
Rh  13.36609957  9.30825223  10.80899988
Rh  11.01881969  9.11462772  11.34693010
Rh  11.17215662  11.44568098  12.01559441
13
# Structure 15   	  Energy =  -4.5882 eV/atom
Au  13.28038206  8.37329334  12.23850245
Au  15.83004333  11.91085728  10.89095714
Au  9.34874177  12.34248860  9.65280187
Au  9.45003152  9.94490028  10.92666288
Rh  9.62018758  11.94545776  12.48828358
Rh  11.31573120  10.09461608  12.53080774
Rh  13.61146166  11.11072971  12.20347855
Rh  11.88154578  12.36981912  13.59918457
Rh  13.70081491  13.58347127  12.15195409
Rh  11.43560779  13.05892073  11.15444327
Rh  13.45587301  12.39501409  9.84178549
Rh  11.57200060  10.72737548  9.99547248
Rh  13.83896165  9.81417726  10.05790640
13
# Structure 20   	  Energy =  -4.6296 eV/atom
Au  13.86142795  10.71270311  9.52530302
Au  11.41958429  9.27984051  9.16677622
Au  8.97563896  10.78894116  9.49703185
Au  9.64661998  13.32799595  10.71000612
Rh  13.18743149  13.34821093  10.66483492
Rh  10.10549223  9.41923634  11.58869561
Rh  8.92264032  11.50963533  12.18476293
Rh  11.43488993  13.89136780  12.24316316
Rh  13.93039471  11.55717755  12.16387852
Rh  12.76040411  9.40292525  11.65593757
Rh  11.42534104  11.82495306  9.97468705
Rh  11.42940731  11.46990090  12.42449709
Rh  11.38826484  9.30214204  13.69734894
13
# Structure 8   	  Energy =  -4.6180 eV/atom
Au  12.08460794  8.86968626  9.23308347
Au  9.61687005  9.72931229  10.23487143
Au  9.79464206  11.13035190  12.84756002
Au  14.22589179  9.48499752  10.96080782
Rh  15.59314442  11.62224902  10.76392637
Rh  13.85839100  11.41705387  12.63602761
Rh  11.95787096  10.54040441  11.35211825
Rh  13.45997757  11.27762170  9.29814904
Rh  12.11894722  13.99465234  9.18578245
Rh  13.76091411  13.27957693  10.87271020
Rh  11.05284985  11.78645085  9.15289779
Rh  11.34766218  12.97461762  11.46966706
Rh  9.09385825  12.41958530  10.61129632
13
# Structure 6   	  Energy =  -4.6296 eV/atom
Au  12.17390449  14.47139363  10.03082810
Au  8.08178225  11.56738373  11.48422893
Au  11.80063028  9.08048726  13.70045157
Au  12.81832956  9.80855586  8.71028366
Rh  12.32562504  9.31252217  11.06201295
Rh  14.40207626  10.70035492  10.39471522
Rh  14.17982065  12.97633174  11.31344622
Rh  12.07989002  11.73886654  10.12386184
Rh  13.91128398  13.29862443  13.69471692
Rh  11.76209500  13.21418673  12.48454723
Rh  13.19223311  11.12030854  12.70712451
Rh  10.58374331  10.95515798  12.09694474
Rh  10.02486074  13.07788048  10.70351777
13
# Structure 18   	  Energy =  -4.5639 eV/atom
Au  10.67100517  12.57144346  13.65937785
Au  9.09434155  8.71086523  10.77277277
Au  14.15925809  8.92534431  11.61948608
Au  11.85857860  12.55835913  11.10820286
Rh  9.83643592  13.81431933  11.37209312
Rh  9.62881703  11.38436243  11.37297769
Rh  14.06794269  12.93540933  9.96896125
Rh  14.96356240  11.50824551  11.66654537
Rh  12.82833440  11.19623280  12.85647302
Rh  10.48165410  10.50445811  9.27423969
Rh  12.97667755  10.65950405  9.86398454
Rh  11.77164085  12.51250748  8.59192428
Rh  11.47107382  9.60692723  11.61608048
13
# Structure 16   	  Energy =  -4.5634 eV/atom
Au  9.76140663  9.02554714  9.79098977
Au  15.13873640  12.60356911  9.83730185
Au  13.89258145  15.03770607  9.54181772
Au  8.89842270  13.57137210  9.71742450
Rh  11.37772498  13.98553446  9.31384487
Rh  10.32798522  13.64455558  11.67402843
Rh  11.04969185  11.28528227  11.36937158
Rh  10.08683823  11.57662407  9.14694199
Rh  12.82530548  13.35333380  11.32458828
Rh  12.66140935  11.70095679  9.34676477
Rh  13.60983413  10.92342126  11.70187276
Rh  14.61452895  9.99853466  9.50683906
Rh  12.32884764  9.30949619  10.22318831
13
# Structure 17   	  Energy =  -4.5629 eV/atom
Au  10.39033789  9.15093142  12.56669412
Au  8.72664604  12.99057595  10.48179199
Au  10.55464010  9.16557843  9.71192092
Au  13.30816642  13.98462872  11.61742345
Rh  14.47206173  12.47601018  9.53029290
Rh  14.26181060  11.79886958  11.90136846
Rh  12.69729064  9.89975674  11.52718247
Rh  14.85280880  10.01653943  10.23681276
Rh  12.68106207  10.74238770  9.10491658
Rh  12.05897514  13.15979168  9.61522809
Rh  10.27978681  11.70996942  8.68747773
Rh  10.83823185  11.45673586  11.20664869
Rh  10.92203941  13.85188010  11.76297206
13
# Structure 19   	  Energy =  -4.5708 eV/atom
Au  8.86125237  12.55166587  9.19468623
Au  12.50128391  13.95679808  12.75058560
Au  16.00638429  10.31571313  11.01165566
Au  10.97666475  8.94434616  10.38286069
Rh  9.50471681  10.81125477  11.04372271
Rh  10.66888968  13.41385479  10.85343741
Rh  11.85152858  11.19917113  10.14165586
Rh  13.06064661  13.47526519  10.03899228
Rh  12.40873850  11.23021375  12.45701276
Rh  14.19951241  11.41612040  9.42918350
Rh  14.46416021  12.26602259  11.83211754
Rh  10.20080464  12.19523425  12.97173460
Rh  10.77358631  9.48151841  12.74004515
13
# Structure 10   	  Energy =  -4.5387 eV/atom
Au  8.82066961  12.07561441  11.31030311
Au  17.09466828  10.44717971  9.80119453
Au  12.52985601  8.42483619  11.11421731
Au  13.83186351  13.22279903  11.39318452
Rh  11.28704852  13.11003333  10.91815331
Rh  14.61975745  10.24015531  10.94782232
Rh  15.22528816  12.32056002  9.41730671
Rh  10.36638640  9.97212131  11.15958191
Rh  16.21598529  12.13353951  11.76578024
Rh  10.52838818  11.37144115  9.17330577
Rh  12.86516567  11.61135176  9.52510485
Rh  14.38274806  11.46851218  13.25980362
Rh  12.34717872  11.02286994  11.91048480
13
# Structure 7   	  Energy =  -4.5947 eV/atom
Au  11.73644948  9.44350505  13.27486253
Au  12.64141000  10.60526491  8.63970371
Au  8.29935483  12.39985961  10.80469124
Au  13.89772652  12.89457099  12.94072959
Rh  14.49781141  13.16313396  10.43148594
Rh  12.10872525  14.47112423  11.97584747
Rh  12.18235323  13.23259517  9.94516695
Rh  11.49517476  12.48856600  13.17559213
Rh  14.29255718  11.00983650  11.47054468
Rh  10.35918300  11.84123265  9.32909526
Rh  9.74822945  11.02393553  12.46654040
Rh  13.18739203  9.01919482  10.91733146
Rh  11.85078686  11.14666756  11.17796417
13
# Structure 1   	  Energy =  -4.5250 eV/atom
Au  13.59957960  13.03108911  11.81883609
Au  10.59730061  13.35590900  11.90435321
Au  12.38512159  8.56010282  10.32722265
Au  9.37050776  10.94772890  11.40857887
Rh  9.12600071  12.50668935  9.53507507
Rh  10.57949174  10.35998772  9.17220008
Rh  11.80336510  11.02374806  11.35767682
Rh  11.52886032  12.70378570  9.31955361
Rh  12.25016829  14.84201973  10.34752932
Rh  13.93614782  13.41459087  9.13489829
Rh  13.31069635  10.86428285  9.19529762
Rh  15.50617505  11.81835406  10.23406190
Rh  14.14540207  10.31303750  11.62249663
13
# Structure 21   	  Energy =  -4.5033 eV/atom
Au  9.70887123  13.12634128  12.76779138
Au  14.03512884  12.53496639  12.74993065
Au  11.35989508  9.13432293  12.76563689
Au  10.35934471  13.62840080  9.22005634
Rh  14.09677922  11.73948188  9.19984722
Rh  10.59722587  9.44932839  9.20622451
Rh  13.01498688  10.66563234  11.16650933
Rh  10.21310916  10.92429649  11.18204321
Rh  11.84325558  13.21113169  11.18641682
Rh  12.37844728  8.47314793  10.44759891
Rh  8.62373569  12.56599123  10.45578597
Rh  14.05497760  13.77268839  10.44871924
Rh  11.67763886  11.60561327  9.24530697
13
# Structure 24   	  Energy =  -4.1299 eV/atom
Au  11.15377406  14.13400372  10.15760950
Au  14.05369052  11.70855815  10.15760950
Au  11.55018062  8.91158897  10.15760950
Au  9.02547580  11.35692073  10.15760950
Rh  13.44093154  13.89523132  8.95123085
Rh  13.76702299  9.45376963  8.95507043
Rh  9.29850010  9.28467950  8.95744731
Rh  9.00590073  13.43349406  8.90444490
Rh  13.44093154  13.89523132  11.36398815
Rh  13.76702299  9.45376963  11.36014857
Rh  9.29850010  9.28467950  11.35777169
Rh  9.00590073  13.43349406  11.41077410
Rh  11.48817009  11.53460593  10.15760950
