13
# Structure 693   	  Energy =  -4.6968 eV/atom
Au  12.89358251  10.99412913  14.40643918
Au  8.44471171  11.21060462  11.88005692
Au  10.07281916  9.33282572  10.61360988
Rh  11.09873125  11.56123886  12.30037566
Rh  12.52343558  9.69226376  11.95629287
Rh  14.45187746  11.12394437  12.09648987
Rh  12.50511785  9.99490911  9.56484370
Rh  9.83199349  13.39490533  11.24183041
Rh  11.73715659  14.84884064  11.44199516
Rh  12.99029916  12.98007572  12.43399278
Rh  14.43840153  11.45136646  9.71100799
Rh  12.96749741  13.31751593  9.98373303
Rh  11.07724131  11.88714306  9.84959406
13
# Structure 843   	  Energy =  -4.6894 eV/atom
Au  11.89736984  9.71496032  8.06142317
Au  8.95637916  12.52596207  10.87119003
Au  15.99649274  10.50327559  11.21400660
Rh  13.58717712  10.82845819  9.95625242
Rh  10.34937719  10.25113338  10.36308922
Rh  12.31195818  8.95083330  10.72675363
Rh  12.40528136  9.73554751  12.99462881
Rh  10.42855600  11.02631270  12.61026859
Rh  11.65597587  12.09825116  9.60097058
Rh  14.81751488  12.85947920  10.49108624
Rh  12.87998328  14.18365046  10.11864836
Rh  11.75389844  12.90497940  11.88448164
Rh  13.69155368  11.63033972  12.26443342
13
# Structure 419   	  Energy =  -4.6865 eV/atom
Au  12.64809054  15.83854774  10.10828562
Au  16.00389877  12.31353507  10.11730882
Au  12.46301718  8.91940313  10.10313531
Rh  9.23452073  12.42131045  11.33487187
Rh  11.35156799  13.65223306  11.31996839
Rh  9.24771213  12.43961146  8.91988066
Rh  11.32565280  11.16116566  8.96880866
Rh  11.36165842  13.67135130  8.98403656
Rh  13.76554478  13.54438338  11.35500676
Rh  11.31339661  11.14487058  11.30344277
Rh  13.74273055  11.15802056  8.96288783
Rh  13.78267391  13.55768195  8.97965677
Rh  13.72988370  11.14754515  11.34211070
13
# Structure 846   	  Energy =  -4.6702 eV/atom
Au  15.52577028  10.14844593  11.17971316
Au  12.82786047  13.33291830  13.63551543
Au  8.64362643  12.04433700  10.76365384
Rh  13.08020624  10.86439853  12.23079073
Rh  14.37595646  12.62377312  11.38408508
Rh  12.96342750  9.92957339  9.94049831
Rh  10.93597085  11.15783078  9.59122289
Rh  12.40753108  13.92366947  10.92171640
Rh  12.23389369  12.91550351  8.73364289
Rh  14.33062754  11.71682163  9.21229015
Rh  12.03334534  8.74374742  11.85023233
Rh  10.01494953  9.95314640  11.44992435
Rh  11.10499140  12.13324750  11.90126490
13
# Structure 1120   	  Energy =  -4.6698 eV/atom
Au  8.93425198  11.88053731  12.23213911
Au  15.92905662  12.28229027  11.96638349
Au  12.24170216  8.53015343  11.71423357
Rh  12.23485346  14.08090999  10.04180064
Rh  10.92144172  13.69087624  12.26519738
Rh  12.94461193  15.27789507  12.03038805
Rh  10.53525946  12.25431460  10.03739879
Rh  12.25592065  12.39671635  8.13342456
Rh  14.03886531  12.32826936  9.95821011
Rh  12.35296870  10.49206567  9.81403869
Rh  14.04916317  10.45164289  11.81458666
Rh  13.31928044  12.91165795  12.34265200
Rh  11.53442510  11.13455984  12.15446217
13
# Structure 689   	  Energy =  -4.6676 eV/atom
Au  12.62036626  13.33360364  8.49592955
Au  8.21423669  12.19633461  11.43925998
Au  12.00374647  8.47130599  10.79958564
Rh  12.40402193  11.07637850  10.13234971
Rh  14.18879057  12.63895242  10.75504558
Rh  12.55205585  14.34821182  11.08050432
Rh  13.94889921  12.05704862  13.18317257
Rh  14.39199181  10.18217810  11.50396482
Rh  12.31913249  13.78886225  13.41461242
Rh  10.75265441  12.89992688  10.50102846
Rh  10.10946012  10.38066004  11.09186123
Rh  10.52811667  12.31724044  12.89649577
Rh  12.14579752  10.46542220  12.64193242
13
# Structure 324   	  Energy =  -4.6650 eV/atom
Au  12.72785995  9.84839384  14.15832143
Au  8.92349034  11.19539707  10.85793493
Au  16.28138175  11.28935341  10.77447662
Rh  10.79825561  13.00183838  11.49242976
Rh  12.60098628  12.34192588  13.10914736
Rh  12.61334083  9.19170350  9.91127090
Rh  11.39006381  10.42646814  11.81257097
Rh  11.34230968  11.33710209  9.52775902
Rh  13.83543282  11.36341641  9.50102804
Rh  13.85129203  10.45791923  11.77527821
Rh  14.37386432  13.03345292  11.47029281
Rh  12.57650410  14.67848266  12.14018874
Rh  12.57204133  13.60302818  9.84785519
13
# Structure 106   	  Energy =  -4.6633 eV/atom
Au  12.39716623  15.63379525  11.31042540
Au  15.75329412  12.09883481  11.33564010
Au  8.91463684  12.20592311  11.34009758
Rh  12.32651558  11.92480112  8.29652517
Rh  11.13458189  13.41829209  10.03272508
Rh  13.56697226  13.38058357  10.03343473
Rh  13.65644500  10.83855727  10.13043484
Rh  12.28554117  9.13885014  11.37369501
Rh  11.07357663  10.99160662  12.65600805
Rh  13.55557541  10.95265657  12.65228239
Rh  10.97053621  10.87938179  10.13154366
Rh  11.16043450  13.40478129  12.42758987
Rh  13.55014833  13.36653721  12.42701328
13
# Structure 405   	  Energy =  -4.6622 eV/atom
Au  14.59902013  9.22940017  12.54895997
Au  15.79397398  11.33422950  11.02906943
Au  9.54500971  8.89996618  11.74733107
Rh  13.50367252  11.78069689  12.77125780
Rh  11.59855802  13.20701062  13.11648663
Rh  10.17527297  11.48315663  12.22899124
Rh  12.04106857  9.98585580  12.13794776
Rh  12.46433954  11.36603352  8.26322212
Rh  13.60290830  9.97897016  10.10417481
Rh  11.11539488  9.76165767  9.74495473
Rh  11.85373573  14.15882097  10.93106381
Rh  13.42592384  12.41695667  10.42994533
Rh  10.81687252  12.18434774  9.99135230
13
# Structure 750   	  Energy =  -4.6618 eV/atom
Au  11.38394930  14.92388076  12.43986264
Au  9.47232125  10.64542743  13.30290682
Au  11.25051591  11.59558660  8.29601908
Rh  13.90387735  11.42521017  13.23387061
Rh  11.98898165  9.72263891  12.86577668
Rh  15.58355094  11.94920601  11.33171244
Rh  11.58637200  12.20946110  12.65315156
Rh  13.62529123  13.51911151  11.84813350
Rh  10.00509664  11.33177567  10.78471035
Rh  11.44841795  13.33832487  10.30230381
Rh  13.44542272  11.76881707  9.98161505
Rh  11.84933234  9.84091754  10.38468488
Rh  14.15435672  9.78879634  11.36018759
13
# Structure 252   	  Energy =  -4.6602 eV/atom
Au  15.30761439  12.67313328  11.63259003
Au  8.79272732  10.33039086  11.35115029
Au  15.76250772  9.83039470  10.92461827
Rh  10.38790511  12.45359159  10.59113358
Rh  12.73584726  13.33844172  10.69897123
Rh  10.56710401  11.84598882  12.90116586
Rh  12.81105920  12.69235355  13.01014122
Rh  11.36332857  9.67264046  12.32737768
Rh  13.67706318  10.55643650  12.46571058
Rh  13.11843095  8.75069543  10.72241710
Rh  11.20238692  10.21033706  9.87631321
Rh  11.88631450  12.28155110  8.54447144
Rh  13.62700457  11.14206043  9.95697952
13
# Structure 894   	  Energy =  -4.6894 eV/atom
Au  8.29419249  12.75199804  11.44239131
Au  9.42381919  10.31703114  11.07716798
Au  12.73194026  12.94614249  8.48054716
Rh  14.20777895  11.88706888  10.66540794
Rh  13.04631503  13.96832726  11.04231660
Rh  10.89211498  13.02556311  10.58176918
Rh  11.95992320  10.89524396  10.21540915
Rh  13.92502725  11.40177771  13.06697017
Rh  13.72493813  9.42220849  11.37887223
Rh  11.37117244  8.50782216  10.94992521
Rh  12.77960092  13.49049780  13.37390327
Rh  10.61531194  12.54351311  12.90139771
Rh  11.69299493  10.40885685  12.59562405
13
# Structure 466   	  Energy =  -4.6588 eV/atom
Au  9.37936999  12.90347611  8.94129032
Au  12.00523594  8.48504904  9.74318356
Au  15.88140980  10.98463622  10.82862860
Rh  10.64519861  10.81626773  10.17989277
Rh  10.12650844  12.77236056  11.55498487
Rh  14.38510846  13.22113459  10.45828021
Rh  11.97515856  13.04574204  9.73489400
Rh  12.48951064  13.74587496  12.08285710
Rh  9.47401251  10.46963216  12.49784500
Rh  13.76454563  11.62600360  12.43822221
Rh  11.88032324  9.86992225  12.06643313
Rh  13.25850821  10.89374088  10.09498017
Rh  11.38814358  11.84706404  13.44844058
13
# Structure 338   	  Energy =  -4.6568 eV/atom
Au  11.04918799  15.15722570  12.22923746
Au  9.25317385  9.59792013  11.55699782
Au  15.96600226  11.37267778  11.60597952
Rh  12.81701781  11.93348113  8.85848760
Rh  12.17469510  13.57294806  10.47328372
Rh  11.21272091  10.37446553  9.84708499
Rh  10.61684832  12.03037728  11.50418135
Rh  11.59330748  12.96234372  13.54407364
Rh  13.58683285  10.60068095  10.73531932
Rh  11.75107096  9.89791564  12.38526368
Rh  11.93647864  10.85264825  14.61183693
Rh  14.01401686  10.57637527  13.33471336
Rh  13.60890402  12.68987288  12.23427208
13
# Structure 736   	  Energy =  -4.6559 eV/atom
Au  16.12224184  11.52148702  11.36954121
Au  11.83303738  14.36595134  10.01216357
Au  11.84956942  11.47739807  14.54990157
Rh  11.80397884  12.89046140  12.26530775
Rh  13.86024022  10.21780307  10.57707002
Rh  13.93302007  11.46709757  12.88989546
Rh  13.91927978  12.85528724  10.69675205
Rh  11.79895368  11.57583028  9.86230999
Rh  9.70008769  10.25577176  10.61977122
Rh  11.79701159  10.15978766  12.11883193
Rh  9.68501221  11.50437339  12.83162921
Rh  9.68260887  12.78754871  10.70065472
Rh  11.80985367  9.04068141  9.85345480
13
# Structure 322   	  Energy =  -4.6555 eV/atom
Au  14.00178598  8.72374425  12.59502066
Au  14.66006450  14.33694987  11.39927407
Au  8.30471443  11.57493535  11.66129940
Rh  11.58645298  11.15828138  8.99255704
Rh  12.45384561  9.81214308  10.76605209
Rh  12.89280228  13.05629286  9.80609752
Rh  13.72473266  11.69140171  11.62178370
Rh  12.87464984  10.80401081  13.73664329
Rh  10.57143340  12.54350980  10.71557427
Rh  12.25428921  13.68719764  12.29215375
Rh  12.19381320  12.92608702  14.59552384
Rh  10.11519100  12.75619984  13.30329643
Rh  10.85274798  10.64119438  12.41046410
13
# Structure 349   	  Energy =  -4.6550 eV/atom
Au  15.71862710  13.09179062  10.73570977
Au  15.62345449  10.25200643  10.54104612
Au  9.12102901  13.82263065  10.59882524
Rh  13.60104890  11.83044530  11.92167307
Rh  13.61866249  11.83399477  9.40010026
Rh  13.27115173  14.19350330  10.66597856
Rh  9.87217228  11.26028873  10.66246323
Rh  11.47140760  10.50836206  12.40602060
Rh  11.43731519  13.02278617  11.89706581
Rh  11.46191008  13.02460760  9.36729058
Rh  13.03482368  9.60310773  10.67733411
Rh  10.62388294  8.84001891  10.66631944
Rh  11.49235150  10.50289774  8.94257571
13
# Structure 852   	  Energy =  -4.6535 eV/atom
Au  9.06357093  10.74570880  10.98618550
Au  16.45073798  11.21770040  10.26133893
Au  9.52378348  13.03438256  9.53715134
Rh  13.97342147  10.45658762  11.38653045
Rh  13.87739773  10.70165137  8.97484388
Rh  13.36417786  8.51512949  9.99210844
Rh  11.07641109  9.15970989  10.10726348
Rh  11.55784171  11.28889299  9.10068658
Rh  14.49600151  12.98240212  9.21748904
Rh  12.14447962  13.60060302  9.39611113
Rh  12.22291835  13.33573175  11.73003923
Rh  14.57640814  12.76005405  11.56988890
Rh  11.66506737  11.04408113  11.59367360
13
# Structure 981   	  Energy =  -4.6528 eV/atom
Au  11.92038775  10.18953719  13.43093385
Au  9.37763373  10.99161852  8.86634992
Au  10.52117524  14.92909107  11.99400721
Rh  14.38479328  11.71265389  12.21573224
Rh  14.83212260  13.07140253  10.28714869
Rh  11.60827545  12.35622706  9.86769160
Rh  10.54286883  10.14500671  11.05021771
Rh  13.69510816  11.49738693  8.90010797
Rh  12.99286734  10.30494353  10.87460071
Rh  12.24201770  12.74835679  12.46513975
Rh  12.79062332  14.28256374  10.67843725
Rh  9.95688094  12.02182472  12.54363607
Rh  9.41131338  13.14365861  10.43026694
13
# Structure 343   	  Energy =  -4.6525 eV/atom
Au  8.64250283  11.70628308  10.13932996
Au  15.81088563  10.70207105  11.60086963
Au  15.33444131  12.54899009  8.99289735
Rh  10.71809567  10.92074368  11.83464407
Rh  11.20534893  11.02602875  9.38671619
Rh  11.92752163  8.96282991  10.74953041
Rh  13.11805696  10.57513194  12.33793165
Rh  13.64399224  10.64864669  9.87079151
Rh  12.03891382  12.88462771  12.81763168
Rh  10.64370910  13.34410086  10.79371644
Rh  14.17405594  12.80630358  11.50911864
Rh  12.73649116  13.04698563  9.48470522
Rh  12.64056176  14.82207202  11.27092560
