13
# Structure 671   	  Energy =  -3.5036 eV/atom
Au  8.78630237  11.76550308  10.62639993
Au  10.68123989  13.75498385  10.70818870
Au  15.55973853  12.60648963  12.24487823
Au  13.02764624  13.83923745  12.04249112
Au  9.75758839  9.50365774  11.81403241
Au  15.31373359  9.96350454  11.18994058
Au  13.45884452  9.60443869  8.96086446
Au  11.53070569  9.58939341  13.95925786
Rh  11.40331907  11.11103316  10.24597907
Rh  13.68933253  11.90659193  10.30772157
Rh  10.96032299  11.88018409  12.57924995
Rh  12.55369018  9.24335184  11.45629246
Rh  13.37286102  11.19337803  12.77982717
13
# Structure 710   	  Energy =  -3.5026 eV/atom
Au  15.84213162  10.70803958  10.51121849
Au  13.96698529  8.68224341  10.76616441
Au  9.05811031  9.86485786  12.20668772
Au  11.59787357  8.62134895  12.07938630
Au  14.93165324  12.91537399  11.88864001
Au  9.34147813  12.49077434  11.17549131
Au  11.09373070  12.82223600  8.94021465
Au  13.03282516  12.90239575  13.92939662
Rh  13.25631092  11.34662309  10.19767642
Rh  10.98998442  10.51085110  10.28664561
Rh  13.67282391  10.60434834  12.57308527
Rh  12.13668890  13.20769884  11.37799343
Rh  11.25775333  11.27232376  12.73057676
13
# Structure 740   	  Energy =  -3.5026 eV/atom
Au  15.95686251  11.52070561  10.56212738
Au  14.21293432  13.61588126  10.73777960
Au  9.16849676  12.61488802  12.18145831
Au  11.78190213  13.74702732  11.94357503
Au  14.86079219  9.35553790  11.77668261
Au  9.31058453  9.93579964  11.14485931
Au  11.16460476  9.57330580  8.88638244
Au  13.06541843  9.43378919  13.88914002
Rh  13.27605081  11.03113968  10.20283876
Rh  10.99272359  11.83627093  10.26949536
Rh  13.71857181  11.74334891  12.55895089
Rh  12.06026252  9.17434663  11.37740459
Rh  11.27556288  11.12165739  12.74714969
13
# Structure 719   	  Energy =  -3.5026 eV/atom
Au  11.49152446  12.97008619  13.94825830
Au  8.78609743  10.69255781  10.64749115
Au  9.71307542  12.99247543  11.81083086
Au  10.75907280  8.75507448  10.73853274
Au  15.59931795  10.08196481  12.33555105
Au  13.13857471  8.67270922  12.03858370
Au  15.24280120  12.62339222  11.11064662
Au  13.39790213  12.87195800  8.91428836
Rh  10.95805374  10.65594349  12.59016975
Rh  13.33940149  11.37108745  12.76540477
Rh  12.49730727  13.30312047  11.42999073
Rh  11.37892857  11.40905869  10.22776080
Rh  13.67027344  10.60062624  10.31552718
13
# Structure 1057   	  Energy =  -3.5012 eV/atom
Au  11.04319399  12.55696648  13.84347854
Au  13.26348775  8.82078950  12.27108076
Au  8.98928091  10.05605109  10.20626859
Au  9.22061811  12.42392761  11.62902863
Au  11.46066316  8.69349687  10.19627477
Au  13.19703827  13.17399123  9.13275311
Au  15.38869635  12.47555396  10.64833212
Au  15.61349874  10.25472278  12.16038522
Rh  11.01796032  10.46421356  12.18291060
Rh  11.24650737  11.46183678  9.85751810
Rh  11.82411612  13.33057622  11.39730685
Rh  13.27873565  11.62329260  12.30730554
Rh  13.54338325  10.56515431  10.14446414
13
# Structure 1013   	  Energy =  -3.5011 eV/atom
Au  13.02839764  13.85665165  10.34676509
Au  8.88867393  12.17651194  12.38834092
Au  11.18419512  13.70131713  12.37515769
Au  13.37359834  9.55407714  13.67513720
Au  15.23117543  10.11549243  11.70116769
Au  15.46091059  12.49103897  10.36875968
Au  11.17667803  9.63078555  8.91105462
Au  9.08895086  10.08286880  10.67434028
Rh  11.21680175  10.80065643  12.37952957
Rh  13.39480729  11.98307139  12.32186137
Rh  10.88495122  12.03719594  10.23564283
Rh  12.50041922  9.11363552  11.18684130
Rh  13.21044317  11.10512112  9.91577476
13
# Structure 949   	  Energy =  -3.5009 eV/atom
Au  13.69167367  12.72580651  13.57485363
Au  11.16471603  8.95877117  12.17515589
Au  15.37468647  9.96788409  9.98955361
Au  15.38725852  12.37519901  11.32131729
Au  12.88826327  8.73154441  10.07059270
Au  11.26980170  13.25819542  8.98104019
Au  9.08084352  12.59718034  10.51435186
Au  8.85856575  10.38306469  12.02147555
Rh  13.45809820  10.55713621  12.01692304
Rh  13.22739005  11.52455697  9.65076735
Rh  12.74031499  13.42964423  11.18288565
Rh  11.27230141  11.77647345  12.16971940
Rh  10.88107292  10.67712551  9.97854803
13
# Structure 733   	  Energy =  -3.5005 eV/atom
Au  8.74731659  10.80576401  10.60403487
Au  10.48086996  8.70405098  10.74632731
Au  15.53736927  9.65648188  12.27507010
Au  12.93421664  8.53645478  11.89338939
Au  9.81343602  12.90403527  11.95972673
Au  15.44090873  12.32767333  11.18908887
Au  13.52207619  12.90571146  9.04109047
Au  11.64135456  12.74417188  14.05033989
Rh  11.41352725  11.32775050  10.23440506
Rh  13.71391261  10.55911891  10.30960268
Rh  10.98420021  10.52465654  12.57292245
Rh  12.59119380  13.13472309  11.52258893
Rh  13.41304349  11.13883323  12.80303726
13
# Structure 1009   	  Energy =  -3.5002 eV/atom
Au  10.94136236  12.51927701  13.86022703
Au  13.21342310  8.84720578  12.29540295
Au  8.97244279  10.03125444  10.14733975
Au  9.11286938  12.37534423  11.63298489
Au  11.44248919  8.69631105  10.19292217
Au  13.15698453  13.23640315  9.21569981
Au  15.38157061  12.42933306  10.59889132
Au  15.55719518  10.25989847  12.19436604
Rh  10.95680563  10.45510266  12.17693812
Rh  11.19542121  11.50766023  9.88544883
Rh  11.71537714  13.35313939  11.44336921
Rh  13.22328828  11.66809957  12.34157005
Rh  13.46080773  10.59741847  10.18442184
13
# Structure 1012   	  Energy =  -3.5000 eV/atom
Au  10.79818465  12.56488122  13.87631387
Au  13.06443337  8.80607895  12.37660108
Au  8.92130641  10.00021067  10.17729606
Au  9.01729178  12.34838466  11.67734725
Au  11.40918047  8.69986208  10.16599339
Au  13.01583746  13.23787240  9.18175894
Au  15.17941708  12.50063932  10.72311788
Au  15.40055983  10.26032080  12.24981268
Rh  10.82014208  10.41641381  12.21425778
Rh  11.10645740  11.49214021  9.90810759
Rh  11.65491073  13.37621022  11.46284473
Rh  13.02172495  11.62468683  12.42848957
Rh  13.42940940  10.57461679  10.19945019
13
# Structure 749   	  Energy =  -3.4991 eV/atom
Au  9.28228683  10.21697660  10.50788540
Au  8.86378652  12.27242152  12.18743305
Au  10.95090207  14.01051713  11.99899839
Au  13.81419126  10.25343092  13.73865251
Au  15.49469024  12.94743977  10.12827383
Au  13.00814767  14.16209766  10.25468469
Au  15.47845819  10.48127620  11.41831108
Au  11.50901777  9.55022133  9.06490663
Rh  11.37723427  11.21283914  12.28223004
Rh  11.04325428  12.15440211  10.01798204
Rh  13.55094545  12.35616230  12.14765934
Rh  12.81911964  9.48858460  11.38299630
Rh  13.39905102  11.34000107  9.78538161
13
# Structure 694   	  Energy =  -3.4980 eV/atom
Au  11.66375003  12.93834079  14.27756421
Au  9.22968457  9.70106267  11.01617058
Au  9.14106016  12.49761065  11.62424854
Au  16.02824876  11.07702063  12.12762953
Au  14.40665214  8.88759581  12.01827013
Au  11.83666787  8.76715291  11.23043468
Au  14.67970245  13.20438327  11.10115609
Au  12.80930906  13.07691831  9.02798995
Rh  13.33474467  11.38630893  12.72356670
Rh  10.94582050  10.88313028  12.76056609
Rh  11.94387841  13.23360771  11.60326760
Rh  13.64573445  10.77679964  10.31932179
Rh  11.20003719  11.28309163  10.19851404
13
# Structure 696   	  Energy =  -3.4979 eV/atom
Au  15.72370054  10.12141945  11.48354785
Au  11.97450801  9.57939254  13.99340029
Au  13.35904165  9.75306659  8.82330806
Au  8.93589371  11.76110348  10.94583760
Au  10.15336398  9.48654607  11.85454786
Au  10.66831907  13.86402394  11.04372885
Au  15.76080062  12.87716240  12.14550114
Au  13.21629302  13.92307719  11.84744694
Rh  12.93981331  9.40178010  11.47455642
Rh  11.62114045  11.26887234  10.34092222
Rh  13.98238322  11.82941422  10.32817284
Rh  11.24848187  11.89801920  12.72062955
Rh  13.68668782  11.35993069  12.85543176
13
# Structure 698   	  Energy =  -3.4958 eV/atom
Au  12.93260476  13.24594318  13.82842941
Au  11.17867162  9.04091021  12.02704923
Au  15.75198297  10.54757779  10.84625117
Au  13.45073891  9.03348660  10.46300457
Au  9.57350552  13.06035299  10.56778138
Au  11.69084227  13.20376781  8.60271689
Au  8.88881241  10.55952515  11.57681639
Au  15.07561904  13.06190731  11.86091886
Rh  10.91125072  11.82330157  12.76939596
Rh  12.33263271  13.30182903  11.20557571
Rh  13.28930560  11.06690554  12.20314339
Rh  13.74132380  11.80003320  9.66094247
Rh  11.35927683  11.04651382  10.25416906
13
# Structure 670   	  Energy =  -3.4954 eV/atom
Au  15.61549674  9.99772844  11.65412244
Au  15.38555579  13.22494860  11.80297651
Au  12.22487608  9.44690750  13.97299800
Au  12.85291451  9.68553903  8.76354391
Au  8.70459971  11.26397316  11.16859936
Au  10.02080316  13.64970555  11.39758965
Au  10.30624368  9.17307760  11.85992997
Au  12.68401567  13.77032164  11.64692540
Rh  13.66442567  11.46471599  12.88147071
Rh  13.88634973  11.62956545  10.28324868
Rh  12.97519667  9.45394718  11.41417512
Rh  11.37152374  11.32883233  10.33685736
Rh  11.14046934  11.63651545  12.75579940
13
# Structure 654   	  Energy =  -3.4953 eV/atom
Au  15.67269152  10.07254050  11.59220137
Au  15.49871916  13.20174817  11.77423713
Au  12.35029884  9.45766036  13.93490539
Au  12.77826141  9.85426042  8.70523558
Au  8.71906360  11.33847022  11.23957197
Au  10.09608603  13.70516423  11.43443397
Au  10.36366512  9.25864957  11.87523225
Au  12.76785239  13.84943576  11.74738506
Rh  13.74722016  11.50627557  12.87406438
Rh  13.87717153  11.71749325  10.26782259
Rh  13.02291083  9.54150662  11.35433916
Rh  11.36372673  11.47150509  10.35119317
Rh  11.21889468  11.68861187  12.79646099
13
# Structure 601   	  Energy =  -3.4950 eV/atom
Au  8.69761709  10.89816019  11.96209649
Au  10.34083614  8.72977678  12.08078689
Au  10.07871847  13.08514951  11.11522750
Au  13.11726023  12.72097968  14.29787942
Au  15.49321167  9.48350647  10.99213005
Au  15.55323805  12.36950485  11.58705879
Au  11.99008997  12.95150489  9.08060072
Au  12.86963596  8.58372822  11.18230235
Rh  11.38878740  11.23655939  12.75721147
Rh  12.81500132  13.05203502  11.64259686
Rh  13.77119409  10.69591327  12.72966163
Rh  13.54899508  11.09178704  10.18704729
Rh  11.09827654  10.63496828  10.36358312
13
# Structure 760   	  Energy =  -3.4950 eV/atom
Au  9.96872278  8.82603655  11.36639450
Au  12.97326074  12.69152890  8.76682270
Au  10.20175190  13.28950276  11.90473250
Au  15.28721334  9.14813842  11.94826163
Au  15.48832910  12.59263521  11.61148847
Au  12.15179364  13.07214361  13.96626666
Au  8.67934917  11.20119474  11.09951286
Au  12.60005927  8.67225192  11.78632124
Rh  11.38900277  11.08484394  10.32280435
Rh  13.89502696  10.74805200  10.35177756
Rh  12.84173827  12.99954809  11.39571428
Rh  13.61515050  11.05166191  12.90987654
Rh  11.09145691  10.84836295  12.75017730
13
# Structure 680   	  Energy =  -3.4950 eV/atom
Au  10.06810000  13.68513201  11.36617258
Au  12.93068112  9.96803565  8.57979462
Au  10.31913341  9.19996676  11.86801819
Au  15.39655886  13.36959626  11.87342868
Au  15.56300331  9.85648579  11.45134190
Au  12.37767204  9.38084928  13.82150208
Au  8.78107537  11.29791099  11.11990371
Au  12.70742986  13.83069454  11.76221565
Rh  11.43953964  11.53277652  10.22107507
Rh  13.97949486  11.76903952  10.26454237
Rh  12.92533839  9.56303912  11.21616912
Rh  13.78961698  11.43594520  12.81622899
Rh  11.24653067  11.61973537  12.65723861
13
# Structure 858   	  Energy =  -3.4944 eV/atom
Au  11.79010411  9.45431276  14.18103475
Au  15.06254940  9.68533324  10.87276460
Au  15.76671806  12.18237281  11.95457321
Au  12.94130520  9.69620663  8.90320157
Au  11.25109801  13.72715342  10.80906193
Au  13.41766257  13.69754743  12.54234978
Au  9.63356137  9.63163610  12.22520515
Au  8.89527903  12.19797958  11.28015080
Rh  13.74944407  10.94305186  13.15239676
Rh  11.34983516  11.68277734  12.58076624
Rh  12.35831171  9.46871386  11.55321857
Rh  10.91084980  11.00398304  10.05567235
Rh  13.32117169  11.75632344  10.67884960
