13
# Structure 81   	  Energy =  -3.0294 eV/atom
Au  15.05947585  9.64042436  11.66449128
Au  8.82135214  11.54985526  11.98959532
Au  10.95448972  13.15489314  12.79174468
Au  10.04717804  13.30458066  10.13892537
Au  15.28814711  12.41752729  11.24549625
Au  12.44801941  8.73962910  11.67459675
Au  13.57760238  10.53152894  9.57120034
Au  9.74472459  8.95864752  11.91524156
Au  13.55830513  13.94715746  12.90654277
Au  11.70992982  12.00264678  8.28005876
Rh  12.74864778  13.06901214  10.50651727
Rh  13.05789055  11.34674243  12.42094149
Rh  11.15848580  10.95575485  10.86249912
13
# Structure 110   	  Energy =  -3.0293 eV/atom
Au  12.24292131  13.96001867  11.98988397
Au  14.28343288  13.69970991  10.14202722
Au  9.28405732  11.40918462  9.53636125
Au  9.76588558  13.73917969  10.84549429
Au  14.01091698  10.95992773  8.88312211
Au  16.12277943  11.70754780  10.55090166
Au  14.94793420  9.36620717  11.29992429
Au  9.69828741  9.14440941  11.07841170
Au  12.31829647  9.05540267  11.78650866
Au  11.58708579  9.84014123  9.07600584
Rh  11.85854007  12.49093951  9.58559099
Rh  10.95364310  11.47219016  11.78967312
Rh  13.40394077  11.53775244  11.48327215
13
# Structure 199   	  Energy =  -3.0255 eV/atom
Au  9.33007371  13.11468692  11.33876558
Au  9.58998581  10.95200919  13.06516599
Au  12.38722707  11.09689686  8.48114529
Au  12.14456090  9.87903847  13.03448752
Au  12.60181050  8.98447599  10.42866822
Au  15.92993291  12.50612991  11.55216709
Au  13.81993593  14.16429409  11.49293458
Au  14.14658123  11.69736187  13.50318504
Au  11.30476963  15.16477295  11.71028797
Au  11.69575081  13.42799389  9.64069079
Rh  10.87088155  10.97491653  10.72686382
Rh  11.73347170  12.59874372  12.56110714
Rh  13.45006573  11.51583208  10.94558780
13
# Structure 182   	  Energy =  -3.0249 eV/atom
Au  8.85296298  10.25844442  11.35402394
Au  9.56943243  12.88425241  11.99544275
Au  13.86702943  11.74592453  13.13012961
Au  11.63804860  13.07123345  13.90618345
Au  14.82694871  12.80687469  10.55375532
Au  12.71188679  12.79750863  8.64435484
Au  10.52139934  11.49882381  9.58695905
Au  13.35093041  8.77305069  12.19327242
Au  11.05308597  8.74846762  10.68814048
Au  15.53980788  10.28679206  11.55253507
Rh  12.19878821  13.01070557  11.27124849
Rh  11.35825205  10.80718672  12.38599110
Rh  13.07098750  10.71842458  10.38899948
13
# Structure 216   	  Energy =  -3.0233 eV/atom
Au  13.17049607  13.76080563  12.30866357
Au  11.02571647  14.28600763  10.60127208
Au  10.20747521  11.85074054  9.29735983
Au  14.32458370  10.12185439  9.62119341
Au  15.30900862  12.51217082  10.95710878
Au  11.43290695  9.48410077  13.02660633
Au  12.52975725  11.85242006  14.29378514
Au  8.61538616  12.85983285  11.43776671
Au  9.18716376  10.16332937  11.45596368
Au  11.68127694  9.62004913  10.17970902
Rh  13.50953552  10.88524594  12.04765932
Rh  11.11033336  11.94929610  11.93336245
Rh  12.78506149  12.27811011  9.95432917
13
# Structure 202   	  Energy =  -3.0231 eV/atom
Au  10.85791622  8.89679135  9.92668846
Au  13.51152381  8.95647689  10.86120019
Au  15.98069265  9.93730327  11.30335021
Au  9.46651186  11.29367762  10.32152143
Au  13.98521180  11.34097773  12.47772929
Au  16.03931923  12.66510920  11.28324730
Au  13.56789933  13.55740354  10.64645007
Au  10.95733405  13.55212785  9.57522946
Au  12.01748582  11.56393810  14.39174496
Au  9.27638361  11.43514775  13.06114668
Rh  12.25191796  11.22498037  10.05359662
Rh  11.43463364  12.65048217  12.02933415
Rh  11.44343999  10.10159702  12.21944567
13
# Structure 283   	  Energy =  -3.0227 eV/atom
Au  10.96868563  9.40091057  10.52811978
Au  11.26611920  9.65984650  13.34403165
Au  14.76364118  11.69971568  9.77341971
Au  15.69767788  11.30326433  12.36537187
Au  13.35483584  11.28083663  14.01796987
Au  13.10166849  9.68442324  8.88702977
Au  13.76730751  13.21908386  12.02514254
Au  9.02448515  10.64876867  12.02107013
Au  9.47790675  12.88660061  10.55198228
Au  11.65179040  14.49469653  10.99180264
Rh  13.34975088  10.19235009  11.55592304
Rh  12.04556808  11.90444561  10.15496799
Rh  11.20338007  12.22858420  12.49484250
13
# Structure 279   	  Energy =  -3.0218 eV/atom
Au  15.74043623  10.47133187  11.45144243
Au  14.93798541  12.94752886  10.58289396
Au  13.42490553  9.03498221  12.09562113
Au  12.83673006  13.22104791  8.69294260
Au  12.22905936  13.60869654  11.30111153
Au  9.54459452  12.90798700  11.87778553
Au  11.25860055  8.95234777  10.41374917
Au  8.91801862  10.38687597  10.91780380
Au  13.85753718  11.74624004  12.99769663
Au  11.61187460  13.04254462  13.87570837
Rh  13.20104238  10.96780709  10.28414736
Rh  11.33513097  10.91908875  12.24338342
Rh  10.90095052  11.66063132  9.72117258
13
# Structure 105   	  Energy =  -3.0207 eV/atom
Au  15.00638234  10.72089176  9.85554937
Au  14.52696017  13.40882305  9.77086437
Au  13.12840726  13.85914429  12.29694398
Au  11.93147354  14.20359800  9.76013834
Au  12.33882022  11.67945164  13.87060922
Au  9.31895308  13.76089196  10.05738377
Au  8.79013517  11.15637850  10.82272028
Au  13.75510369  9.84835798  12.30863910
Au  10.12699145  8.88909946  9.97285295
Au  12.76529092  9.17116445  9.75260589
Rh  10.70712711  12.69241243  11.98635157
Rh  11.09174598  10.24786467  11.96989912
Rh  12.67615756  11.73431831  10.73607509
13
# Structure 259   	  Energy =  -3.0203 eV/atom
Au  10.34482222  11.46767310  13.05085908
Au  11.07964623  8.85698568  12.11240244
Au  14.43644661  13.23064844  12.38712338
Au  11.77567898  13.58488977  11.82861407
Au  13.38005153  9.04437849  10.54300766
Au  15.43841384  10.63590211  11.51375318
Au  8.68628604  10.13721594  11.14187807
Au  9.26654552  12.85257485  10.80549863
Au  11.43585320  13.13098831  8.99435737
Au  12.55203245  10.52703560  8.23231749
Rh  12.93064948  10.98692348  12.46138783
Rh  11.21602810  10.94254694  10.51007741
Rh  13.58335132  11.99493078  10.17060177
13
# Structure 232   	  Energy =  -3.0176 eV/atom
Au  11.41006506  9.00960119  9.85593605
Au  8.97019946  10.06139736  10.84255859
Au  13.95080872  9.07976811  10.88710221
Au  9.39917657  12.77711273  11.37561832
Au  15.75633478  11.05297871  10.33418463
Au  14.53892884  13.59558221  10.00273993
Au  11.81841025  13.72927370  10.17763752
Au  11.72435225  13.30560156  12.93678580
Au  10.49308538  11.58400122  9.03805058
Au  12.96678144  9.89568108  13.41935985
Rh  11.46992461  11.02072567  11.55479770
Rh  13.82767958  11.94357814  11.98286644
Rh  13.13620361  11.31328565  9.59015986
13
# Structure 46   	  Energy =  -3.0173 eV/atom
Au  12.34829137  14.23484323  10.70265075
Au  8.89798894  11.16350580  10.32483103
Au  10.29141013  9.56040060  12.16448638
Au  12.04312301  10.67558100  14.08027617
Au  9.66881046  13.75820234  10.75630482
Au  11.29954174  13.32479324  13.27804599
Au  14.79370970  13.19985756  10.38326190
Au  13.60134288  10.85656476  9.35378297
Au  15.53527946  10.64627997  11.43336482
Au  11.14768461  9.77695423  9.37465599
Rh  13.56351189  12.14829430  12.44412142
Rh  11.39905105  11.76489662  11.15481644
Rh  12.93839177  9.80639457  11.70188418
13
# Structure 312   	  Energy =  -3.0165 eV/atom
Au  13.63944074  12.24726847  12.72643548
Au  15.81851852  11.07148408  11.37913401
Au  13.99511465  9.04881619  11.18813768
Au  12.30362487  13.93279050  10.12403766
Au  14.91508100  13.54196016  10.61093717
Au  9.55536173  11.99644153  12.33861839
Au  9.62176912  13.94204882  10.36917874
Au  9.27709820  9.64413577  10.89003913
Au  11.70515502  9.07702875  9.66003261
Au  11.53000795  11.77249137  14.28187054
Rh  13.30450697  11.39584793  10.11344169
Rh  10.84585114  11.62889519  9.90886996
Rh  11.71722909  10.40011725  12.01991035
13
# Structure 21   	  Energy =  -3.0165 eV/atom
Au  12.09247719  12.80005745  14.50048187
Au  9.26563736  13.01268127  9.96314506
Au  10.53071736  8.73639425  11.44364472
Au  15.37817207  10.95803995  11.57153673
Au  11.89460407  13.79471205  9.89300624
Au  8.84691885  10.97841208  11.77276835
Au  13.72648279  11.78863412  9.48302814
Au  11.13798315  10.51380973  13.42975156
Au  13.15477325  9.43983335  11.51974441
Au  12.62289332  14.75705385  12.43783465
Rh  10.57706326  13.04405200  12.30697380
Rh  11.24731980  11.14148334  10.41934891
Rh  12.98818302  12.12021705  12.02008654
13
# Structure 277   	  Energy =  -3.0152 eV/atom
Au  8.63093992  11.41078390  11.62599065
Au  9.80805921  9.71798031  9.67232162
Au  15.07259887  13.25053620  11.69602946
Au  13.46773361  12.48145905  9.49298427
Au  12.41883390  14.15409991  11.55339633
Au  9.74117468  13.92855073  11.83877566
Au  13.40414484  8.87873229  12.00298355
Au  12.37073035  10.22908843  14.27312760
Au  15.19483277  10.60028771  10.75499457
Au  12.54916180  9.85563366  9.54106387
Rh  10.97737531  12.01887817  10.46482085
Rh  10.92185630  10.01634315  12.07053471
Rh  12.96047744  11.54542993  12.01074051
13
# Structure 231   	  Energy =  -3.0231 eV/atom
Au  14.18215188  11.59290946  13.24513551
Au  13.06024039  14.02238853  13.58775942
Au  8.52410891  10.63134846  12.38858726
Au  10.76622814  9.16732889  12.80891992
Au  13.02361002  9.69582476  11.52009800
Au  11.11781341  14.52935992  11.78863234
Au  8.94490854  12.97196519  11.16984383
Au  12.79937917  11.07809380  9.11979423
Au  11.02429713  13.13494643  9.32919984
Au  15.20387410  11.16249059  10.68125378
Rh  11.46395619  11.88328921  12.54614861
Rh  10.51059645  10.77812136  10.59667549
Rh  13.18854133  12.92950689  11.05686530
13
# Structure 309   	  Energy =  -3.0145 eV/atom
Au  9.04430567  12.95676142  11.39533084
Au  11.58600877  13.67074447  10.50368013
Au  14.34474479  13.55550590  10.13489380
Au  13.52765388  13.00425409  12.62829802
Au  12.33446034  11.66792814  14.62603349
Au  15.46613027  11.16651291  11.24964002
Au  8.93537484  10.10062439  11.73575603
Au  10.38177346  11.22932067  9.60871566
Au  11.32883062  8.91378544  11.02633883
Au  14.03594088  8.76368401  10.51286722
Rh  11.18750572  11.49702733  12.19986415
Rh  13.30477102  10.16793792  12.63298298
Rh  12.95840560  11.22269854  10.29308547
13
# Structure 249   	  Energy =  -3.0249 eV/atom
Au  8.69920628  11.33522438  11.43841170
Au  9.99975158  13.22939762  9.79782377
Au  15.33872022  9.78057579  11.54331126
Au  13.71354644  10.71860322  9.48100201
Au  12.69555812  8.72163685  11.37684171
Au  10.03957143  8.98359649  11.82947359
Au  13.31532343  13.83329005  12.68501563
Au  12.12070334  11.84402972  14.46762317
Au  15.24806703  12.56963637  11.07862564
Au  12.72142756  13.30322428  9.97280856
Rh  11.18724961  10.89127825  10.38405133
Rh  10.92441900  12.62311999  12.25112642
Rh  13.08007546  11.24165098  12.08283055
13
# Structure 276   	  Energy =  -3.0134 eV/atom
Au  11.50911163  10.29302681  8.94433788
Au  15.29307890  9.23844922  10.93955322
Au  12.64914598  8.86879291  11.26700530
Au  16.47967443  11.62563746  10.29692614
Au  14.60065371  13.60168177  10.21993070
Au  9.96376683  8.96958758  10.96111194
Au  8.96053259  11.28317682  9.91806642
Au  9.91843424  13.58165483  10.99967294
Au  12.02233770  12.97634064  9.23765884
Au  12.47536270  13.71736010  12.02816316
Rh  14.03196542  11.10960244  9.23822839
Rh  13.78667299  11.37027125  11.62333594
Rh  11.28598403  11.29070968  11.44118373
13
# Structure 262   	  Energy =  -3.0134 eV/atom
Au  11.84414527  13.01091550  14.07250944
Au  11.25949659  14.70272028  11.88856502
Au  12.78658915  10.62775980  13.22866839
Au  11.94164278  13.61707504  9.39433611
Au  13.07804855  8.66950637  11.33235832
Au  14.91510054  10.79061947  11.33273956
Au  10.01651148  11.68345329  9.17326177
Au  10.51459448  9.40105075  10.99543188
Au  8.45004030  11.08648083  11.42762346
Au  14.55271638  12.77230932  9.44638658
Rh  13.31150920  12.98187778  11.82763390
Rh  10.95744172  12.02815614  11.65890157
Rh  12.54121161  10.96482237  9.98981052
