13
# Structure 851   	  Energy =  -5.2078 eV/atom
Au  13.07012693  8.38309657  10.14274492
Rh  13.47246478  13.20141896  11.35005996
Rh  11.55171930  10.41296694  11.33532869
Rh  13.88779460  10.81225264  11.35016141
Rh  13.47342885  13.19550547  8.93624153
Rh  11.55305063  10.40100400  8.96937675
Rh  13.88942433  10.80808374  8.94703634
Rh  8.79354274  12.33736860  11.34338422
Rh  9.21975276  9.97081404  11.36702324
Rh  11.13528768  12.75142672  11.32562958
Rh  11.13586153  12.73907861  8.95016116
Rh  8.79466749  12.31215127  8.92244364
Rh  9.22390744  9.94586860  8.95200764
13
# Structure 880   	  Energy =  -5.1517 eV/atom
Au  9.79607640  8.73802922  9.56509525
Rh  14.14952537  12.12727138  11.82253986
Rh  13.74830596  9.82977173  11.25147298
Rh  11.92520638  13.17803018  9.52452868
Rh  14.23331010  12.68572031  9.47756779
Rh  13.72556637  10.40515170  8.91526195
Rh  11.79555158  12.54808949  11.80545374
Rh  11.39690734  10.90116021  9.09878728
Rh  9.07953764  11.45359024  9.36751487
Rh  11.42925781  10.24689120  11.37192704
Rh  9.08643539  10.45213134  11.66697931
Rh  9.41695281  12.88795101  11.67138059
Rh  9.66872086  13.87027345  9.40656590
13
# Structure 1002   	  Energy =  -5.1496 eV/atom
Au  9.59906542  8.63810271  11.16771724
Rh  13.87709257  10.40624897  11.55017928
Rh  11.90898494  13.06811840  11.22670444
Rh  11.48696623  10.77320167  11.67830313
Rh  9.60788771  13.56926160  11.08693674
Rh  9.14546615  11.27017986  11.67137079
Rh  14.24401227  12.84621250  11.50607380
Rh  14.25518410  11.77635292  9.25661086
Rh  9.63216628  12.96934183  8.76148784
Rh  9.06770101  10.69381626  9.34706343
Rh  11.94733771  12.39170369  8.95312359
Rh  11.35410210  10.13693486  9.40656952
Rh  13.59952446  9.39779474  9.29878608
13
# Structure 875   	  Energy =  -5.1440 eV/atom
Au  13.05092404  14.40732383  10.20616001
Rh  13.57205504  9.46370778  11.47241753
Rh  13.48166333  11.94857221  11.47914912
Rh  13.49099072  9.57369604  9.08003452
Rh  11.27261527  12.31939240  8.97651578
Rh  13.66591899  11.99031625  9.09791018
Rh  11.15760017  9.95167106  9.18451785
Rh  8.85954476  12.40335900  8.92424333
Rh  8.81009371  10.02087229  9.21251142
Rh  8.81093340  12.66594545  11.31917121
Rh  11.28652693  10.29179844  11.52846624
Rh  8.89689970  10.27386582  11.60725459
Rh  11.15766825  12.79876534  11.31211125
13
# Structure 963   	  Energy =  -5.1397 eV/atom
Au  13.53270846  8.62053788  11.02934531
Rh  14.09734333  10.84787283  9.66802089
Rh  13.50602732  13.02547466  8.81422485
Rh  11.81541152  10.22173262  9.70114834
Rh  11.18784900  12.38741323  8.95165559
Rh  8.89088588  11.69255340  9.24069360
Rh  9.61516751  9.36570618  9.62258059
Rh  8.76310826  13.03479530  11.32933506
Rh  13.39559707  13.80509482  11.08494162
Rh  13.88280570  11.59071672  11.92514745
Rh  11.10472522  13.28341487  11.14642214
Rh  11.55971731  11.08174047  11.88527725
Rh  9.19320259  10.63359005  11.71270881
13
# Structure 1003   	  Energy =  -5.1370 eV/atom
Au  9.88348964  14.92267263  11.42353367
Rh  9.23740163  11.69383252  9.17033260
Rh  9.70842033  9.45170618  9.89132846
Rh  11.54288138  12.16497662  9.19236801
Rh  12.03576064  10.00929938  10.00880026
Rh  13.80967765  12.76652897  8.94285644
Rh  9.44008549  10.12114451  12.17675172
Rh  9.07799983  12.39853145  11.44494319
Rh  13.84877708  13.04828728  11.41386486
Rh  14.34731790  10.70541637  10.20357942
Rh  14.06412434  10.92413935  12.66183278
Rh  11.45040153  12.79740532  11.47325901
Rh  11.75832108  10.57934573  12.28069149
13
# Structure 985   	  Energy =  -5.1361 eV/atom
Au  13.90674720  8.68858718  10.02593735
Rh  9.29221079  10.62278162  9.27049198
Rh  9.78862505  9.29043751  11.30214195
Rh  11.25880734  12.33480726  12.06159040
Rh  8.99004558  11.57267719  11.78527218
Rh  8.78075366  12.99204414  9.75482314
Rh  11.11533960  13.30919097  9.90512845
Rh  14.21498561  10.96158039  11.29415685
Rh  13.53871110  13.08234129  12.20999951
Rh  11.96801730  10.21676727  11.23419485
Rh  13.38421816  13.91184834  9.95792704
Rh  13.95040419  11.74245704  9.05596876
Rh  11.64123226  11.15487993  9.09001605
13
# Structure 863   	  Energy =  -5.1344 eV/atom
Au  11.50324937  14.47344140  10.42354125
Rh  9.48181022  10.02841360  11.69597403
Rh  8.91925702  12.45792233  11.25569242
Rh  11.39033157  12.09768045  9.03100545
Rh  11.76124145  9.74970205  9.21334367
Rh  9.35811190  9.57969005  9.33608360
Rh  9.04681874  11.93480150  8.92618826
Rh  14.24883378  10.27105098  11.48271391
Rh  11.93292000  9.72019302  11.58402895
Rh  11.30695608  12.03273332  11.41883064
Rh  13.60979908  12.59576745  11.42247700
Rh  14.13154363  10.17180159  9.08518571
Rh  13.68112167  12.54554076  9.03057283
13
# Structure 1095   	  Energy =  -5.1273 eV/atom
Au  13.05950183  8.42209427  11.25314892
Rh  13.74388718  10.83674696  10.00142729
Rh  13.26580777  13.19786550  9.97082043
Rh  11.42244897  10.34726279  9.97200796
Rh  13.26941317  13.22827852  12.38631942
Rh  13.74240395  10.86582388  12.40590243
Rh  8.76970272  12.31371420  11.19130785
Rh  9.24707474  9.88443247  11.22955521
Rh  9.24643581  11.19244105  13.49833848
Rh  10.95139780  12.68781915  9.93786093
Rh  10.95552803  12.72642986  12.42160917
Rh  9.22692562  11.10609346  8.92709543
Rh  11.42254025  10.38723224  12.44488920
13
# Structure 606   	  Energy =  -5.1271 eV/atom
Au  15.94448965  11.23073866  10.43299564
Rh  14.19827445  13.17062173  9.22510850
Rh  9.51143716  12.87492468  9.23553084
Rh  11.90201149  12.46661590  9.24764161
Rh  12.02339122  8.88275215  9.18125128
Rh  13.58281758  10.68907989  9.21995986
Rh  10.30605383  10.55661966  9.23928289
Rh  13.57377034  10.64598354  11.60094435
Rh  11.89523828  12.42573255  11.61109571
Rh  14.19705185  13.11301544  11.65787119
Rh  10.28861956  10.52940211  11.57616001
Rh  12.00615256  8.85617340  11.62481152
Rh  9.50864963  12.85174528  11.63783945
13
# Structure 878   	  Energy =  -5.1181 eV/atom
Au  9.86626163  8.56394232  10.17280272
Rh  11.39213039  10.47568505  8.98195744
Rh  11.39199194  10.47554819  11.35638639
Rh  13.86451083  10.92204802  11.42204611
Rh  12.91585313  8.81230442  10.16952787
Rh  13.86458006  10.92339372  8.91820974
Rh  14.39686308  13.12311697  10.17087036
Rh  9.86420791  13.48241978  11.37636094
Rh  9.13742133  11.17239446  11.36757376
Rh  9.86473865  13.48419884  8.96655954
Rh  9.13829820  11.17401387  8.96944792
Rh  12.14704603  12.82281984  11.36263097
Rh  12.14697680  12.82354971  8.98008609
13
# Structure 1086   	  Energy =  -5.1176 eV/atom
Au  9.93379101  8.52788283  10.16065481
Rh  9.15051769  11.15311766  11.37285427
Rh  9.87840267  13.46366887  11.37531540
Rh  11.40911795  10.46801024  11.35802645
Rh  9.15239017  11.15628524  8.97451081
Rh  11.41147588  10.47598614  8.98449772
Rh  9.87225355  13.46913807  8.96667993
Rh  12.16509008  12.81563802  11.35961297
Rh  12.16231604  12.82402411  8.97855846
Rh  13.88339981  10.91805636  11.42248373
Rh  12.93731346  8.81127811  10.16543469
Rh  13.88439384  10.92500679  8.91908447
Rh  14.42006096  13.11585107  10.17192313
13
# Structure 582   	  Energy =  -5.1166 eV/atom
Au  8.63930134  11.24556037  10.39967333
Rh  10.50267290  9.36664261  8.91165391
Rh  15.17288294  10.45950073  9.09822383
Rh  12.85880612  9.80321700  9.05697517
Rh  11.90011019  14.00277370  8.95273896
Rh  11.01885067  11.74468634  9.00701460
Rh  13.58923763  12.29505450  9.07495116
Rh  11.83390668  14.05719877  11.36465072
Rh  10.43766335  9.32700328  11.35401646
Rh  11.01556121  11.78890812  11.35986530
Rh  15.09459370  10.43187058  11.52189463
Rh  13.54995900  12.34047269  11.42289375
Rh  12.76799255  9.86583631  11.40371118
13
# Structure 852   	  Energy =  -5.1100 eV/atom
Au  12.39381463  8.36926192  10.20763911
Rh  13.43652211  13.26364140  8.97350711
Rh  11.43177520  10.62430967  9.02073373
Rh  13.77386328  10.88677551  9.00607227
Rh  11.05384906  13.00829405  9.00560327
Rh  13.42100902  13.28644355  11.38926310
Rh  13.77673776  10.91074877  11.40979731
Rh  11.43430748  10.61937265  11.37419381
Rh  9.03415940  11.28387279  11.47050268
Rh  9.62397603  9.16258388  10.16669306
Rh  9.03618979  11.32929338  8.91090533
Rh  8.82231453  13.51540653  10.22081200
Rh  11.04835104  12.99878741  11.38879410
13
# Structure 842   	  Energy =  -5.1093 eV/atom
Au  11.01584819  8.24984471  10.50892351
Rh  8.96755793  12.67887348  11.49313363
Rh  11.32414582  13.01259201  11.78448613
Rh  11.55741579  13.00293712  9.37000961
Rh  9.22740648  12.65168075  9.10469241
Rh  9.59266485  10.26680863  9.18246321
Rh  13.75715294  13.13147214  11.20676616
Rh  11.68935781  10.65920619  11.80025812
Rh  11.95862250  10.58283031  9.42585042
Rh  14.33295264  10.01144239  9.81845368
Rh  13.91198594  12.23695199  8.87412388
Rh  14.07952841  10.88349503  12.01185000
Rh  9.33645752  10.29493276  11.56503968
13
# Structure 600   	  Energy =  -5.1060 eV/atom
Au  11.18793579  8.53384168  10.00288892
Rh  9.04224818  12.78995099  11.52357659
Rh  11.40564375  13.22937135  11.55261814
Rh  13.58219125  13.95277749  9.91105372
Rh  9.00572062  12.94338385  9.14499579
Rh  11.32976636  13.41199183  9.17528665
Rh  11.88362503  11.10593690  9.00808269
Rh  14.26663768  11.73998795  9.12078767
Rh  9.56031955  10.58824065  8.94002552
Rh  13.76723492  9.66294181  10.47015476
Rh  9.51585726  10.42186654  11.33742803
Rh  14.01531696  12.00539980  11.56642209
Rh  11.80427764  10.90581315  11.37087292
13
# Structure 877   	  Energy =  -5.1058 eV/atom
Au  10.40032754  14.55823720  10.38404156
Rh  9.19069739  9.89216472  8.91297937
Rh  9.07997319  12.31463946  9.01195217
Rh  9.08756170  9.82107848  11.30520275
Rh  11.45089359  12.19282004  11.40760387
Rh  9.07120677  12.23322720  11.41862352
Rh  11.45304556  9.79667780  11.40972618
Rh  11.42405068  12.38544973  9.04107261
Rh  13.71093123  11.44444818  8.84873889
Rh  13.17312151  13.79415783  10.13536477
Rh  13.88080045  11.70809512  11.34105743
Rh  13.73066134  9.39233024  10.41669237
Rh  11.58639935  9.95248799  9.01087061
13
# Structure 833   	  Energy =  -5.1056 eV/atom
Au  12.13332068  14.42418378  10.43668635
Rh  14.56346352  10.18326101  9.46895877
Rh  12.25926981  9.70349318  9.05921421
Rh  9.82730230  9.52254025  9.71603682
Rh  11.75789037  12.03803988  9.14756257
Rh  9.37646840  11.76076159  8.93024110
Rh  14.07364818  12.54596400  9.45239476
Rh  14.25118551  10.12327586  11.85696106
Rh  11.45122853  12.01187855  11.52589030
Rh  13.75982987  12.48071939  11.82779082
Rh  11.94196805  9.62811501  11.50369327
Rh  9.54421889  10.34934234  12.05166669
Rh  9.09018591  12.58420850  11.13675128
13
# Structure 626   	  Energy =  -5.1051 eV/atom
Au  11.31228535  8.55305693  9.92927448
Rh  9.01327550  12.71846666  11.55849564
Rh  11.36247894  13.21217245  11.58260691
Rh  13.53969245  13.99839892  9.82311934
Rh  8.95404198  12.90793790  9.18272650
Rh  11.27520081  13.42046040  9.20794398
Rh  11.86453045  11.13842182  8.98842286
Rh  14.22786023  11.74637859  9.13708512
Rh  9.55139427  10.56586284  8.93280511
Rh  13.85798594  9.72060126  10.58650628
Rh  9.54094402  10.36362977  11.32619166
Rh  13.96523977  12.12583341  11.54198444
Rh  11.81528478  10.90083756  11.35769814
13
# Structure 1028   	  Energy =  -5.1046 eV/atom
Au  9.26647137  8.81516408  10.68863921
Rh  9.38216573  11.62183527  8.87161222
Rh  10.31801393  13.82770072  9.21058731
Rh  12.48369696  12.89535272  9.29917346
Rh  10.13417912  13.58922134  11.60416698
Rh  9.20040355  11.39662767  11.24375709
Rh  12.30708141  12.62322401  11.65128639
Rh  11.35658512  10.36266692  11.28728685
Rh  13.84871816  10.60325511  11.56259709
Rh  12.87099829  8.76134347  9.98211617
Rh  14.04829560  10.91905003  9.09699734
Rh  14.63142502  12.92891037  10.66361476
Rh  11.52341975  10.64799864  8.93457564
