13
# Structure 306   	  Energy =  -4.2883 eV/atom
Au  12.18701653  11.64693234  8.16475710
Au  14.08065410  8.73173760  11.65765366
Au  14.99526337  13.49346160  11.71455290
Au  10.23491789  14.40495200  11.69094504
Au  9.30766313  9.65932062  11.66069252
Rh  10.47620353  11.90825790  10.35695387
Rh  13.85374054  11.25964443  10.36815683
Rh  12.49053257  13.27710275  10.38945152
Rh  12.47691435  13.24908539  12.79473129
Rh  10.45832962  11.88394531  12.76280059
Rh  11.82486919  9.86363895  12.73896595
Rh  13.84369711  11.22995993  12.77413961
Rh  11.83875491  9.89846383  10.33357280
13
# Structure 1080   	  Energy =  -4.2839 eV/atom
Au  12.11976376  8.93352246  11.29153122
Au  8.18841455  12.32654063  11.29464045
Au  14.84957040  12.37140351  9.13002425
Au  12.05473334  15.78061187  11.28152267
Au  14.32658061  12.38529494  14.00457527
Rh  12.42061531  11.14544798  9.62781925
Rh  10.53014746  11.11981558  11.14555614
Rh  10.50898560  13.56421241  11.13609227
Rh  12.39795765  13.56502810  9.61860503
Rh  13.95089012  11.15147914  11.49615052
Rh  12.04472866  13.57029300  12.99806890
Rh  12.06745988  11.15320939  13.00651149
Rh  13.92845316  13.59906457  11.48725403
13
# Structure 253   	  Energy =  -4.2684 eV/atom
Au  11.35678766  8.72627935  10.30723876
Au  13.00561071  12.99304644  8.39695393
Au  16.03528085  10.37571607  11.20516496
Au  8.97440123  10.32930054  10.70791908
Au  9.56415689  12.83409944  11.86301228
Rh  13.40056054  9.65390673  12.03671904
Rh  13.53304638  10.57433720  9.80787911
Rh  14.43015628  12.59758065  10.74612255
Rh  14.30179200  11.68443820  12.94565906
Rh  11.17201262  10.58961925  12.31896192
Rh  12.20856039  13.54335974  11.00191004
Rh  12.09151799  12.61286270  13.21775588
Rh  11.31254295  11.52323646  10.07054189
13
# Structure 695   	  Energy =  -4.2578 eV/atom
Au  12.66201327  15.06669768  11.32295564
Au  15.32992210  10.40701378  11.34970952
Au  8.48742600  11.53873326  11.29432311
Au  12.39273477  13.45593061  8.92495276
Au  12.29561438  13.42890573  13.74443041
Rh  13.09653850  10.81411992  13.03004307
Rh  12.81172748  9.15838945  11.30172456
Rh  13.41638798  12.48949847  11.35215403
Rh  10.74233839  11.27906961  9.59346014
Rh  10.69798040  11.23523029  12.99629516
Rh  10.45470985  9.56999193  11.27119074
Rh  10.99613253  12.92180285  11.31711596
Rh  13.14571277  10.85449331  9.62532940
13
# Structure 833   	  Energy =  -4.2571 eV/atom
Au  8.42573881  11.94908211  11.44710353
Au  12.51253512  8.54228166  10.96821511
Au  10.19733460  9.93552867  11.12148213
Au  14.92654176  10.08954152  11.36943612
Au  12.59677931  13.32286059  8.44352441
Rh  12.51099585  13.97889497  13.33023144
Rh  10.74597248  12.39507519  12.90855967
Rh  10.84331264  12.89017932  10.55431462
Rh  12.44211987  10.68824004  12.62313535
Rh  14.18319913  12.27838293  13.02869647
Rh  14.28053929  12.77051569  10.67047489
Rh  12.53828726  11.18531718  10.25300689
Rh  12.60967981  14.48614613  10.98171260
13
# Structure 464   	  Energy =  -4.2570 eV/atom
Au  13.15768750  12.94894847  8.44327036
Au  12.07643274  8.26054452  10.90761765
Au  15.35407765  9.80655905  11.51163883
Au  8.69061984  12.27463636  11.50124976
Au  10.16511497  10.08117791  11.14658907
Rh  12.91334687  10.80072820  10.25151471
Rh  14.47693182  11.90227694  13.06881770
Rh  12.73101656  10.33097746  12.60667444
Rh  14.65573655  12.36522915  10.72500184
Rh  13.05819596  14.14621218  10.96017681
Rh  12.87901617  13.67611220  13.30556126
Rh  11.09699490  12.13831645  12.85192022
Rh  11.27184897  12.60548282  10.48575762
13
# Structure 406   	  Energy =  -4.2543 eV/atom
Au  9.10266707  14.18108634  10.77808134
Au  11.15270483  11.51920767  14.52838108
Au  8.78216827  9.09755972  10.86589843
Au  13.60437296  13.89739056  10.86125036
Au  13.26745094  8.79778876  10.80619545
Rh  11.27404419  13.13272741  12.21262272
Rh  11.28581341  12.82775905  9.81647065
Rh  9.06315290  11.61848739  9.96780396
Rh  9.43779908  11.60287217  12.35750287
Rh  11.09334408  9.87806807  12.22940995
Rh  12.92195933  11.40852124  12.39552235
Rh  13.33645529  11.36351535  10.01374322
Rh  11.11527153  10.15803827  9.82973798
13
# Structure 997   	  Energy =  -4.2511 eV/atom
Au  14.85473632  14.46050454  10.71554352
Au  14.20894022  9.38673176  10.82355198
Au  10.38350737  15.00454499  10.89821387
Au  9.72445951  9.91905539  10.67497527
Au  12.32276420  12.10176984  14.57514225
Rh  14.45135654  11.91880719  10.06971137
Rh  12.44043200  13.49239316  9.90263897
Rh  12.11076056  10.91535047  9.86184433
Rh  10.11156346  12.48328509  10.12449662
Rh  12.04137933  10.53904812  12.24785547
Rh  12.55514951  13.78894319  12.30451973
Rh  10.54070920  12.42796513  12.49581535
Rh  14.06221196  11.89700562  12.45619792
13
# Structure 368   	  Energy =  -4.2470 eV/atom
Au  9.76662875  12.28770644  8.69077737
Au  9.65743903  12.02297059  13.75117103
Au  11.37231249  8.16102981  10.89722958
Au  15.78916787  10.51312374  11.23897314
Au  12.74731805  14.77811276  11.68369003
Rh  9.89011544  10.74622492  11.00610125
Rh  11.75725981  10.53174050  9.54851318
Rh  12.29328860  12.87019443  9.64142331
Rh  14.09870152  12.50751323  11.24000873
Rh  13.19168932  10.15382950  11.46182687
Rh  11.16535156  9.94869953  12.91389931
Rh  10.62796682  13.01426695  11.33557536
Rh  12.26876254  12.22810055  12.92369235
13
# Structure 718   	  Energy =  -4.2410 eV/atom
Au  13.88787678  15.09592420  12.42834984
Au  10.83617975  9.07180585  11.43936098
Au  9.19350513  13.46937859  11.91102330
Au  12.81308156  11.97383075  8.43963781
Au  15.43222141  10.29999708  12.25288969
Rh  13.88623046  12.43259941  13.19150166
Rh  14.40257518  12.46935764  10.87237722
Rh  12.53452981  13.92151202  10.34281630
Rh  11.76223277  13.48389917  12.64494725
Rh  11.05753449  11.87687461  10.60589045
Rh  10.55695450  11.36117757  12.96986657
Rh  13.02722743  10.50412665  10.72821111
Rh  12.74710418  10.30403592  13.07161860
13
# Structure 789   	  Energy =  -4.2363 eV/atom
Au  10.61303070  11.42362017  8.13777347
Au  9.13365976  13.93265497  12.54021045
Au  13.72205736  14.15994195  11.74564273
Au  13.77380178  9.02645785  11.32486255
Au  9.50766578  8.72764057  12.17764402
Rh  10.29262197  13.22823094  10.17271556
Rh  11.54574095  12.73455681  12.39991261
Rh  12.50310325  12.12597419  10.06832526
Rh  13.84712522  11.55037372  12.05600268
Rh  9.48687762  11.30599766  12.95187773
Rh  9.29318625  11.06918865  10.56026312
Rh  11.39188602  10.01111509  10.42676595
Rh  11.76207333  10.20486793  12.78587335
13
# Structure 970   	  Energy =  -4.2337 eV/atom
Au  10.42025602  14.86839140  11.46073759
Au  15.17677326  13.42898453  11.05987792
Au  13.83541157  9.05621371  10.70106295
Au  12.35979316  12.17937334  14.45859857
Au  9.04728324  10.10363468  11.45012392
Rh  12.64863320  13.39858106  11.93823891
Rh  12.04618989  13.63267350  9.54838640
Rh  13.91199192  11.27333565  12.37729413
Rh  13.42704736  11.67697859  9.98534622
Rh  11.47036644  10.25110816  10.10255212
Rh  10.55120937  12.30928989  12.41537580
Rh  10.12167464  12.25133774  10.08264580
Rh  11.71269405  10.20436104  12.46452667
13
# Structure 846   	  Energy =  -4.2268 eV/atom
Au  8.83303352  10.92180923  11.82622609
Au  13.01552531  13.34985622  13.68816794
Au  16.20633930  10.45094965  11.35268569
Au  12.13422165  8.53935052  12.31578684
Au  9.85739236  12.40239598  9.72100296
Rh  12.22800312  13.28845160  10.98244978
Rh  11.41367541  11.51028159  12.35248152
Rh  14.53738736  12.79973339  11.45981626
Rh  14.84808416  11.70967644  9.33767779
Rh  13.71418333  10.83995908  12.52494653
Rh  13.61871234  9.78727590  10.37510804
Rh  12.42661102  11.80030840  9.09034668
Rh  11.07632441  10.09817938  10.40956524
13
# Structure 175   	  Energy =  -4.2264 eV/atom
Au  11.88576161  9.74375016  14.14375586
Au  8.84327590  12.29190388  10.88339351
Au  15.91382585  12.17240665  11.93912011
Au  13.63778495  13.99723781  12.07164793
Au  15.18597109  9.64049571  10.93433239
Rh  11.55895443  12.90394083  10.39456738
Rh  10.10767940  10.32738481  12.20184789
Rh  11.36590450  12.35053580  12.71351893
Rh  12.35223041  9.28784692  11.46248097
Rh  10.77855840  10.69620871  9.80881587
Rh  13.80193593  12.02775568  10.19199860
Rh  13.44904496  11.19529067  12.42249176
Rh  13.05280557  10.00142381  9.17557162
13
# Structure 747   	  Energy =  -4.2250 eV/atom
Au  8.71002630  10.58136188  11.04862376
Au  9.43924360  12.83405979  12.53237940
Au  11.19714893  8.96144143  10.20625849
Au  12.91894664  13.49099277  8.92918144
Au  15.85278178  10.73167568  11.22541507
Rh  11.05147170  10.56392650  12.42289154
Rh  11.70126204  13.80845533  11.35413575
Rh  12.09372758  12.49031714  13.42774329
Rh  11.04809807  11.73736254  10.28725076
Rh  13.25349821  9.66659305  12.03666106
Rh  13.32527339  10.99456896  10.07991054
Rh  14.04742563  12.86022442  11.37902661
Rh  14.26394907  11.38498302  13.36623479
13
# Structure 984   	  Energy =  -4.2236 eV/atom
Au  10.94170358  9.02332960  11.18404684
Au  15.50056557  11.15236330  9.70711854
Au  13.13091389  11.85956341  14.44525258
Au  8.90419795  12.65629952  11.22172058
Au  13.34686380  15.35789363  10.39978279
Rh  13.14920541  10.23599807  12.21916071
Rh  13.03725730  10.07052193  9.83882994
Rh  14.75975893  12.01583178  12.17157757
Rh  11.01049669  11.48863883  9.87241804
Rh  13.28794111  12.64654024  10.13344813
Rh  11.29164138  11.70828258  12.28545657
Rh  11.11827174  13.96569757  10.74638578
Rh  12.94587466  13.67975306  12.49702999
13
# Structure 129   	  Energy =  -4.2217 eV/atom
Au  9.02061191  12.43832585  11.25368140
Au  12.53570640  14.42628421  10.62508827
Au  16.17360711  11.20165388  11.51603234
Au  12.93415988  9.92962059  8.51846902
Au  9.36560094  9.95075583  12.36507929
Rh  11.43693092  11.90677347  10.09866054
Rh  11.49106835  12.49826566  12.41208582
Rh  13.87246722  12.81323282  12.41117748
Rh  13.84776640  11.93051380  10.20925078
Rh  13.82092201  9.72449777  11.14311386
Rh  14.26561165  10.66677150  13.42987940
Rh  11.32035598  9.54753262  10.62649619
Rh  11.92870417  10.21022316  12.99601139
13
# Structure 1158   	  Energy =  -4.2214 eV/atom
Au  15.87161952  13.41485272  11.51113958
Au  9.97524088  11.24409951  8.96817936
Au  13.09875363  8.94681753  11.53479267
Au  11.58836530  15.54568795  11.41740156
Au  10.00983029  11.40191930  14.11465908
Rh  12.42547228  11.25869711  10.18732586
Rh  14.60210887  11.13906503  11.48875198
Rh  13.23283862  13.36669770  11.45292721
Rh  11.31409838  13.47419354  9.73018618
Rh  9.71897678  13.05252031  11.52621037
Rh  10.34185025  10.68958569  11.55775550
Rh  11.38718982  13.55824550  13.23314433
Rh  12.45809339  11.31231100  12.83497632
13
# Structure 603   	  Energy =  -4.2204 eV/atom
Au  12.40146000  13.15110726  8.63124152
Au  15.09990922  9.76072479  11.17229470
Au  16.35822880  12.13111642  11.75683768
Au  10.96462115  8.54145204  10.20866503
Au  9.08624712  12.73807208  12.47107831
Rh  12.83084646  10.61355689  9.92187102
Rh  13.82874813  12.55741889  10.90113127
Rh  13.96656549  11.55898739  13.08629517
Rh  10.58862963  11.52259323  9.98784923
Rh  12.53667937  9.70320292  12.13077442
Rh  11.57863835  11.85191273  13.24818007
Rh  11.57364030  13.25579160  11.30576448
Rh  10.01397822  10.28080698  11.99703359
13
# Structure 978   	  Energy =  -4.2199 eV/atom
Au  15.58281703  12.27652753  11.48018192
Au  12.23791843  15.64213427  10.32797553
Au  12.12704838  8.87068427  10.11602222
Au  8.77020610  11.91143372  9.70489352
Au  15.66222631  12.65409418  8.64373229
Rh  13.80914449  10.85856972  9.33958480
Rh  13.25449625  10.96217511  11.68233131
Rh  13.14312958  13.28155858  9.19705881
Rh  13.15631480  13.36580535  11.59936720
Rh  11.33779762  11.30737120  9.01279440
Rh  10.67391817  13.73393773  9.23943307
Rh  10.77006348  13.39881302  11.61727268
Rh  10.87591769  11.01672232  11.35619724
