13
# Structure 1159   	  Energy =  -2.7911 eV/atom
Au  13.05042904  13.58628385  9.72795608
Au  15.71029943  10.05314461  11.15209044
Au  13.38842885  8.61103960  11.69994030
Au  15.20066299  12.77990650  11.41085372
Au  12.04583234  11.28131693  8.31866750
Au  11.15588394  9.31627282  10.15591160
Au  11.40199595  10.33351380  12.82350404
Au  12.60633790  13.29059184  12.50750103
Au  8.98042687  10.50978262  11.41103422
Au  9.97626762  12.72881539  12.91438367
Au  14.02539977  10.97991553  13.27596187
Rh  13.22614516  11.07686225  10.72679723
Rh  10.91857763  12.13634818  10.52818418
13
# Structure 881   	  Energy =  -2.7905 eV/atom
Au  13.95173602  13.86424806  9.37786466
Au  15.62726518  12.02943465  10.60601399
Au  13.38366286  13.21121871  12.05564440
Au  14.96335259  9.35739172  10.17751895
Au  13.82784602  10.51314124  12.45183878
Au  12.26710273  8.86176770  10.64641111
Au  9.57752103  9.39605187  11.07641892
Au  8.99537338  12.09873723  10.72281623
Au  10.72882449  13.89074339  11.93528397
Au  11.27984586  13.26745794  9.25999709
Au  10.74331728  10.59267332  8.85564232
Rh  13.16319526  11.33862065  9.76395976
Rh  11.42841543  11.33475003  11.56282503
13
# Structure 876   	  Energy =  -2.7904 eV/atom
Au  9.52398834  13.52527357  10.30753701
Au  12.24771244  14.07771049  10.75161976
Au  10.73946139  12.43035601  12.57179991
Au  14.97150999  13.51849142  11.18499291
Au  15.55241445  10.83125298  10.78381307
Au  13.82299470  9.07538410  12.08124438
Au  10.64682221  9.07198161  9.43627461
Au  13.30821562  9.70765400  9.38904915
Au  8.92229882  10.84582204  10.70848029
Au  11.16165026  9.72610510  12.12459890
Au  13.74817828  12.41156237  8.93365465
Rh  13.12159076  11.60654175  11.64868842
Rh  11.36499619  11.60275106  9.86218545
13
# Structure 542   	  Energy =  -2.7897 eV/atom
Au  12.39858377  9.76793799  9.31472525
Au  10.22328069  8.94794892  10.89617897
Au  12.73608878  8.74168755  11.96380761
Au  8.72165394  11.18093689  11.30930455
Au  10.21245714  13.42159897  10.90098250
Au  15.35574739  9.26677141  12.10876510
Au  16.62684788  11.19733667  10.60814173
Au  14.65447357  11.19729192  8.65581168
Au  15.34720653  13.09537085  12.15343795
Au  12.38019399  12.59534532  9.30465967
Au  12.73483202  13.63920371  11.93760652
Rh  11.46065375  11.18762657  11.53939373
Rh  13.86140474  11.18876762  11.22967509
13
# Structure 929   	  Energy =  -2.7894 eV/atom
Au  10.29594496  13.47804886  9.46893011
Au  12.91911074  13.95186293  9.58900800
Au  8.99126581  11.49902979  10.83656395
Au  10.29350683  9.45474966  9.58720726
Au  12.92424364  9.01121323  9.54040908
Au  16.93986107  11.47758982  10.29244245
Au  13.30515574  12.85541754  12.19430428
Au  15.44439223  13.72079794  10.60604744
Au  10.99181148  11.48952642  12.75041662
Au  15.43638491  9.23509331  10.57333744
Au  13.27230522  10.07242269  12.16210273
Rh  11.79944678  11.48068874  10.18706710
Rh  14.20564511  11.48103307  9.91612917
13
# Structure 1074   	  Energy =  -2.7892 eV/atom
Au  8.71859135  11.10015488  10.19189634
Au  9.79750100  13.56799543  10.02870626
Au  13.22196566  12.37672228  12.47152603
Au  12.41377097  13.94422975  10.28437142
Au  15.07562181  13.70630492  10.64329617
Au  10.25808066  9.02072386  11.03389513
Au  15.17396567  9.29162794  9.32244798
Au  12.64752361  9.69679815  12.26309619
Au  12.52258022  9.06104437  9.51070993
Au  15.23339779  10.53060804  11.97148973
Au  16.58492052  11.59698929  9.80214655
Rh  11.32939777  11.45524635  10.56699786
Rh  13.75067295  11.47693133  9.90026864
13
# Structure 534   	  Energy =  -2.7891 eV/atom
Au  10.30246628  13.33486448  9.44397324
Au  15.43033483  13.53654329  10.66534412
Au  13.21288785  12.72287204  12.21188916
Au  16.91020326  11.32997179  10.06639144
Au  12.91597190  13.82445844  9.63066061
Au  10.28935650  9.31816842  9.46997786
Au  12.90593472  8.84062852  9.63330551
Au  8.94867703  11.33948815  10.73007003
Au  13.24305058  9.94781144  12.21880821
Au  15.43156387  9.11207130  10.62702486
Au  10.89770646  11.31198135  12.70064488
Rh  14.16857006  11.33042495  9.95856430
Rh  11.77595906  11.32766068  10.17796376
13
# Structure 411   	  Energy =  -2.7884 eV/atom
Au  10.39717013  9.45918015  9.14337582
Au  16.92885644  11.20728377  9.97023630
Au  15.41588611  9.10053392  10.76081238
Au  13.02109883  9.15177888  9.49278895
Au  10.54494862  10.48455866  11.83568274
Au  10.61621823  13.91534584  10.43559584
Au  9.06813959  11.75399557  9.84608446
Au  13.28208685  14.06679809  10.16364119
Au  15.90367843  13.69228761  10.05604713
Au  12.37892755  12.49552952  12.30897490
Au  13.17463026  9.85907343  12.23271259
Rh  11.88597300  11.62370327  9.75131270
Rh  14.32015760  11.56063431  10.41028699
13
# Structure 1107   	  Energy =  -2.7882 eV/atom
Au  10.48692665  9.42643813  11.58575322
Au  13.22072273  9.98186402  8.65574135
Au  13.33896382  14.02441825  10.74531898
Au  12.38004920  12.58466792  8.52130245
Au  10.66299745  13.87183198  10.47480898
Au  10.56032390  10.54678945  8.91641687
Au  9.09839410  11.70696575  10.98473468
Au  13.12682691  9.13818663  11.36918821
Au  17.08354055  11.22187295  10.70129111
Au  15.97380398  13.67766241  10.74383141
Au  15.49913569  9.12414285  10.02029517
Rh  11.96426910  11.58842709  11.02074621
Rh  14.41351205  11.53693322  10.55484837
13
# Structure 509   	  Energy =  -2.7875 eV/atom
Au  15.32312036  13.30519743  11.93126453
Au  12.69348446  13.81078505  11.71181455
Au  12.26464413  12.75287081  9.03009529
Au  16.59890052  11.47212629  10.30554584
Au  14.58236128  11.44875678  8.40675512
Au  15.34414169  9.39520142  11.56832556
Au  10.19969446  9.11945949  10.74555317
Au  12.40335425  9.91616371  9.13689215
Au  10.17936360  13.65216397  10.63984237
Au  8.69764087  11.38124488  10.82336687
Au  12.70995373  8.99079055  11.82791754
Rh  13.82111792  11.40652768  10.98346634
Rh  11.40929066  11.40110668  11.30979836
13
# Structure 232   	  Energy =  -2.7875 eV/atom
Au  10.68072766  12.51412115  12.32674356
Au  9.58523123  13.57636910  10.00180973
Au  11.15952348  9.81672491  12.11403293
Au  9.01714507  10.88372827  10.48436797
Au  10.84094890  9.07552446  9.42102680
Au  13.43852865  9.85575602  9.08117317
Au  13.76860553  9.07580014  11.76381195
Au  13.88031063  12.56992254  8.88014434
Au  12.27281407  14.15418567  10.61757448
Au  14.97108816  13.58250289  11.22496480
Au  15.56820044  10.90807963  10.70437179
Rh  11.46069713  11.66152469  9.66810442
Rh  13.11041797  11.65019901  11.51900285
13
# Structure 537   	  Energy =  -2.7874 eV/atom
Au  15.28080270  13.54974377  11.04516526
Au  12.62811885  14.03014544  10.76980362
Au  14.13441911  11.97315059  9.01631488
Au  9.94703173  13.66546894  10.45740743
Au  11.09035690  12.31399931  12.68971996
Au  9.14394401  11.07948379  10.96178874
Au  15.98519348  10.88811056  10.97011989
Au  14.28711482  9.06076815  12.08078714
Au  10.50910540  9.13361696  9.64781122
Au  13.22802174  9.43038316  9.50830795
Au  11.59529815  9.63609403  12.17826586
Rh  11.63347835  11.58141466  9.98628561
Rh  13.48610783  11.58555664  11.71020313
13
# Structure 110   	  Energy =  -2.7869 eV/atom
Au  12.70718400  8.85142762  9.41799661
Au  14.05557995  11.73887951  12.20847567
Au  15.33212240  9.18213845  9.77051818
Au  15.13580702  13.64569853  10.00756749
Au  16.42997820  11.41837032  10.88080433
Au  10.09977331  8.94205828  10.13259148
Au  12.58976856  13.76880138  9.20470206
Au  9.18070518  11.33819179  11.02100729
Au  11.90656680  10.10021794  11.89299825
Au  9.93469969  13.60275144  9.69356436
Au  11.60187766  12.79985031  11.76118422
Rh  13.81637978  11.35533875  9.60606210
Rh  11.37399220  11.27117520  9.37279195
13
# Structure 552   	  Energy =  -2.7868 eV/atom
Au  12.50765179  10.13597839  8.61981162
Au  10.28239463  9.09636984  10.01608686
Au  12.78441829  8.84286733  11.07389359
Au  8.75439790  11.27561237  10.63364164
Au  10.15182209  13.60783095  10.57530913
Au  12.16372342  12.84019500  8.79396524
Au  15.36269920  13.59810625  10.85472473
Au  12.74747156  13.75461234  11.38360751
Au  14.67291547  11.80892190  8.44724290
Au  16.72502656  11.32148013  10.23416481
Au  15.43636143  9.13290008  11.22283290
Rh  11.45348795  11.29508453  10.97748234
Rh  13.96306540  11.32405365  10.95741382
13
# Structure 644   	  Energy =  -2.7867 eV/atom
Au  12.40476272  8.76932294  10.73955003
Au  15.08039279  9.15741531  11.06523645
Au  13.93037330  10.58986297  8.92851432
Au  10.89591628  10.64642556  12.56610177
Au  9.72605302  9.17242265  10.48250382
Au  14.34172786  13.73602034  11.79595170
Au  15.89813476  11.75270320  10.81027480
Au  13.20097210  13.20859697  9.29481753
Au  10.53187383  13.74028534  9.68344921
Au  11.66793563  13.24882939  12.19244886
Au  8.93066323  11.78112135  10.64991373
Rh  11.46358707  11.21873408  9.89661211
Rh  13.35997058  11.22699040  11.58199367
13
# Structure 773   	  Energy =  -2.7865 eV/atom
Au  15.54343105  9.90241275  11.80956340
Au  10.29734664  10.02348383  12.29234592
Au  12.92500180  9.24497864  12.15435258
Au  14.08127436  12.21584531  12.27661778
Au  11.67245884  9.11592685  9.64922110
Au  16.01402779  12.14639948  10.15426897
Au  13.51623737  13.36459220  9.65448539
Au  12.06483589  11.51261278  8.11360289
Au  11.98260493  13.95577730  12.03929340
Au  9.60582941  11.00810460  9.58005183
Au  9.51798268  12.70536697  11.76589571
Rh  11.83747231  11.58616232  10.90005006
Rh  13.89918794  10.58947980  9.84740854
13
# Structure 548   	  Energy =  -2.7865 eV/atom
Au  15.51109814  13.63194293  9.57960781
Au  12.85821766  13.91362961  9.56651183
Au  12.40642738  12.59925858  12.00897507
Au  10.32290954  13.74995296  10.52056460
Au  8.84379994  11.48627100  10.32121463
Au  15.41364361  9.16334524  9.83171588
Au  12.79896900  9.01954540  9.29534183
Au  11.98886051  9.90083398  11.86169722
Au  10.15924347  9.15283828  9.91422058
Au  16.69530050  11.42584459  10.65204412
Au  14.50715970  10.85871876  12.23455857
Rh  11.48617188  11.48442887  9.63007931
Rh  14.01441436  11.43862579  9.70075605
13
# Structure 563   	  Energy =  -2.7882 eV/atom
Au  8.95563027  11.07254273  10.84928068
Au  10.87638865  12.22581531  8.98966827
Au  9.73815962  13.67504410  11.15782575
Au  12.37386641  14.09877044  10.71129229
Au  15.04563457  13.72221126  10.65017542
Au  10.49271846  9.11786323  11.90920875
Au  13.17486077  9.52987216  12.16659979
Au  11.63136940  9.62644927  9.40201260
Au  14.33912448  9.17436770  9.64267646
Au  15.89681207  11.12344024  10.70679713
Au  13.94969637  12.10497950  12.66683743
Rh  13.35643340  11.65873375  9.96271876
Rh  11.49000285  11.62614469  11.65862529
13
# Structure 864   	  Energy =  -2.7862 eV/atom
Au  9.55837273  9.36900153  10.86741310
Au  12.21211712  8.91019920  10.67417846
Au  10.68435956  11.07961870  8.94762582
Au  14.88579745  9.24461738  10.36353815
Au  8.78190477  11.97984379  11.00967861
Au  15.73312414  11.79040178  10.89244528
Au  13.74142525  10.60362168  12.59122987
Au  10.51030157  13.87308519  11.89646838
Au  14.41597379  13.81773401  9.69591998
Au  13.18983963  13.27734936  12.16079269
Au  11.71630290  13.56621548  9.38194061
Rh  13.21368892  11.37169728  9.92183433
Rh  11.33656016  11.33904124  11.62206226
13
# Structure 1025   	  Energy =  -2.7862 eV/atom
Au  15.20423610  12.07117438  9.52816312
Au  16.54333234  11.54674140  11.86501839
Au  15.17370262  9.22272086  11.32815567
Au  12.51048254  8.77105609  11.67143991
Au  13.16374017  10.11870514  9.35505109
Au  12.56069769  12.83535468  9.37901838
Au  9.90643546  9.18610864  11.99726484
Au  14.75590849  13.06631961  13.37004276
Au  12.53779119  13.72410776  12.11476738
Au  10.21107915  13.53520695  10.62311801
Au  8.68711847  11.57064770  11.64610371
Rh  13.75948841  11.38918339  11.65521487
Rh  11.34601319  11.23643858  11.33493293
