13
# Structure 245   	  Energy =  -3.2789 eV/atom
Au  14.65492373  13.37744686  10.92169985
Au  16.50524627  11.39807838  10.96239248
Au  15.35148045  8.94294593  10.94489661
Au  12.73907492  13.26488406  8.89246366
Au  8.91861618  11.41659823  11.03342437
Au  10.05432859  8.96245832  10.85221878
Au  10.78439855  13.37963496  10.88271094
Au  12.70622279  13.26364338  12.91742961
Au  12.70177300  8.68601399  10.91014515
Rh  13.92454864  10.97861838  12.12825914
Rh  11.50528924  10.98991977  9.70061528
Rh  13.94644159  10.98256597  9.72785291
Rh  11.48543048  10.98209226  12.10228838
13
# Structure 340   	  Energy =  -3.2781 eV/atom
Au  12.79334821  8.93086050  10.34775515
Au  10.14910391  9.16642842  10.32094089
Au  8.96571760  11.58942588  10.41986768
Au  10.74526127  13.60393218  10.23904757
Au  12.70419195  13.53389723  12.24949533
Au  12.87365281  13.55507808  8.48335599
Au  14.83266024  13.60397823  10.48439597
Au  16.61893220  11.59442180  10.30993751
Au  15.43720878  9.17011205  10.39947724
Rh  13.97660661  11.21622847  11.59776793
Rh  11.53853456  11.22283597  11.51587461
Rh  14.04665248  11.23446242  9.20205688
Rh  11.60673847  11.22564474  9.12300247
13
# Structure 461   	  Energy =  -3.2771 eV/atom
Au  12.36916585  9.55324145  8.74233554
Au  16.39921838  11.54162665  10.63810743
Au  14.62825541  9.52997054  10.32268600
Au  15.17669592  13.94055059  10.33555389
Au  8.65020879  11.54634121  10.22511322
Au  10.41513034  9.58438545  10.79435445
Au  9.88513998  13.90789700  10.74873765
Au  12.52915065  14.19353461  10.54923259
Au  12.68118884  9.56390148  12.35436057
Rh  13.67804802  11.89006319  9.24961711
Rh  13.85046661  11.89245531  11.63914979
Rh  11.25441127  11.89710020  9.44571038
Rh  11.42572686  11.91793254  11.84758445
13
# Structure 246   	  Energy =  -3.2768 eV/atom
Au  10.80216780  13.39496613  11.11518143
Au  10.01049692  8.95903744  11.14533012
Au  12.67034929  8.68353945  11.07199785
Au  8.89406780  11.45100913  11.07468020
Au  16.38600721  11.51309669  11.17590001
Au  15.32630840  9.00251454  11.00970533
Au  14.42951960  13.40912725  11.02198649
Au  12.57372575  13.22223219  8.95367508
Au  12.65980716  13.24217519  13.18375885
Rh  11.44081349  10.98023687  12.30720767
Rh  11.40921239  10.97070578  9.90455610
Rh  13.84901994  10.99015190  9.86272478
Rh  13.87427554  10.98701252  12.26632959
13
# Structure 600   	  Energy =  -3.2753 eV/atom
Au  12.79640407  13.84810518  10.55410295
Au  10.57536950  9.25260274  10.19090571
Au  8.86390191  11.24888308  10.80509667
Au  10.15782544  13.58236151  10.24900884
Au  13.00385856  9.18193775  8.91036159
Au  12.59833862  9.16856260  12.16948796
Au  16.71949159  11.25082281  10.13307645
Au  15.02800451  9.29640466  10.91725805
Au  15.43846201  13.55087465  10.85209743
Rh  14.11145935  11.55894743  9.48894911
Rh  11.44624857  11.53993352  11.58586539
Rh  11.70359039  11.56235325  9.19493631
Rh  13.84815665  11.56605228  11.88518711
13
# Structure 6   	  Energy =  -3.2768 eV/atom
Au  12.28536150  8.85413550  11.14968350
Au  14.96750162  9.21506525  11.14968350
Au  9.60322138  9.21506525  11.14968350
Au  13.78154654  13.61746563  11.14968350
Au  10.78917646  13.61746563  11.14968350
Au  12.28536150  13.29826120  8.80684510
Au  12.28536150  13.29826120  13.49252190
Au  8.66007417  11.86274933  11.14968350
Au  15.91064883  11.86274933  11.14968350
Rh  13.50254598  11.14707392  9.93717772
Rh  11.06817702  11.14707392  12.36218928
Rh  13.50254598  11.14707392  12.36218928
Rh  11.06817702  11.14707392  9.93717772
13
# Structure 1039   	  Energy =  -3.2723 eV/atom
Au  14.19837837  12.81708429  12.74635795
Au  9.62369270  12.61814030  12.73872605
Au  9.79234358  10.31874194  11.14554950
Au  11.92940723  13.40650888  14.09110369
Au  12.08068180  8.77374377  11.04748293
Au  14.22079306  12.97712165  9.87858613
Au  16.32079383  11.93867672  11.27594472
Au  9.64274027  12.80763930  9.84740564
Au  11.96428271  13.75961707  8.62681903
Rh  12.03772031  11.17849926  12.48369893
Rh  11.80081769  13.46365823  11.34704073
Rh  12.04828864  11.34256392  9.93761518
Rh  14.09382564  10.41630815  11.16808500
13
# Structure 1061   	  Energy =  -3.2686 eV/atom
Au  15.06571433  11.39606594  10.20527475
Au  14.97567248  9.38716114  12.10442530
Au  12.84723379  11.48261630  8.48915286
Au  15.18410776  13.50462361  11.99975499
Au  12.76252812  14.10290986  13.25907909
Au  12.47813951  9.08319685  13.33508115
Au  10.24232885  10.06572331  12.27165293
Au  8.33875789  11.76086001  11.36307026
Au  10.53449731  12.90894401  12.47491802
Rh  12.61082095  10.26535198  10.91828495
Rh  12.74277926  12.81431993  10.86284272
Rh  13.62187795  11.53894785  12.91272684
Rh  10.67585628  11.62992722  9.95980426
13
# Structure 1098   	  Energy =  -3.2678 eV/atom
Au  14.91938321  11.20551592  10.04104892
Au  14.86984794  9.09416982  11.83919659
Au  12.69547129  11.29664520  8.32866269
Au  14.99026055  13.37135448  11.78325038
Au  12.56741892  13.73207927  13.17394587
Au  12.39239429  8.87868303  13.15761686
Au  10.12449209  9.80591278  12.10282606
Au  8.16851424  11.42813593  11.16024608
Au  10.30013283  12.67331365  12.28201314
Rh  12.48350469  10.02677206  10.73514583
Rh  12.55576211  12.57299694  10.72873249
Rh  13.60701888  11.27522293  12.69885791
Rh  10.51448994  11.36705200  9.79381669
13
# Structure 551   	  Energy =  -3.2671 eV/atom
Au  10.08319555  9.01982073  10.10064670
Au  8.96966024  11.37719100  10.85475966
Au  10.41608716  13.57999303  10.29014196
Au  12.73705812  8.83576547  9.79600269
Au  12.73336527  13.68163006  8.81718644
Au  15.03678881  13.56070607  10.31476470
Au  15.39624350  9.06087082  10.02962757
Au  16.51393008  11.38018968  10.89832777
Au  12.71299091  13.12312617  11.84559614
Rh  11.49546995  11.28793488  9.40482557
Rh  11.55068447  10.71541444  11.73159119
Rh  13.94044437  10.74126669  11.71495421
Rh  13.95575061  11.29829395  9.37708340
13
# Structure 914   	  Energy =  -3.2665 eV/atom
Au  8.95636952  11.93607279  11.85148070
Au  15.19317571  9.39866220  11.04148418
Au  12.50492091  8.92344210  11.02945084
Au  9.81626569  9.41166997  11.03679703
Au  12.49923983  12.20282391  8.05444593
Au  11.17472093  13.46859901  12.56753160
Au  12.49969031  13.95668898  10.13727161
Au  16.09066214  11.91534310  11.82187059
Au  13.89210694  13.46995494  12.53447374
Rh  11.33982280  10.82080627  12.77252641
Rh  13.68923961  10.82850521  12.77317991
Rh  11.31930081  11.52589152  10.42773914
Rh  13.69874980  11.52396103  10.42485474
13
# Structure 298   	  Energy =  -3.2652 eV/atom
Au  15.11866265  9.26908951  9.79943647
Au  15.12904546  13.85384191  10.02710200
Au  12.60003779  9.06490204  8.77631331
Au  9.83390972  13.56446227  9.98207220
Au  8.68398139  11.17264960  10.58992287
Au  12.45699124  13.95258270  9.66673987
Au  10.52885449  9.19767408  10.64807174
Au  16.12898861  11.49243383  10.97441915
Au  13.04368321  9.68396507  11.72567208
Rh  13.76404451  11.55607135  9.36826019
Rh  11.31789825  11.39109279  9.24472219
Rh  13.57119564  12.26634815  11.67257694
Rh  11.23262340  11.79435850  11.60328923
13
# Structure 594   	  Energy =  -3.2621 eV/atom
Au  12.50125286  12.22877157  14.50458412
Au  15.66388226  12.47296931  10.40806623
Au  10.39436085  8.95966324  11.50871512
Au  13.03626973  13.32488356  9.78475733
Au  10.36362621  13.26258238  10.36499047
Au  12.27654627  13.92859908  12.39032018
Au  15.67962318  9.89024844  11.52971002
Au  13.07071544  8.91537796  11.74472682
Au  8.75857560  11.11436933  10.90511157
Rh  11.33343613  11.39331855  12.16290553
Rh  13.70408814  11.59373399  12.12982950
Rh  13.73051395  10.73523525  9.81837633
Rh  11.37946338  10.78848275  9.80274327
13
# Structure 700   	  Energy =  -3.2620 eV/atom
Au  14.71053807  9.96336324  11.45338767
Au  12.36392530  9.98851278  9.60213590
Au  12.18101037  14.55981011  10.35896146
Au  10.22026597  12.19418730  13.37468125
Au  14.90833044  12.25436655  13.04651983
Au  12.50131141  8.14964846  11.56991883
Au  12.19382823  12.41369303  8.42435263
Au  8.38530134  11.35725115  11.51025104
Au  12.49375154  13.66112862  12.98815165
Rh  12.47863180  10.91434749  12.58240158
Rh  10.43509228  9.77246166  11.73266574
Rh  13.60788740  12.33665529  10.72953101
Rh  11.01737190  12.13421532  10.82750292
13
# Structure 87   	  Energy =  -3.2615 eV/atom
Au  14.21980716  13.87283655  10.33722387
Au  11.57917589  14.04334503  9.48202686
Au  7.97967218  10.82367839  11.31580165
Au  9.41042116  13.05368771  10.68089411
Au  12.46632099  11.61827382  14.17627517
Au  12.42074797  8.89733522  9.49671875
Au  14.54125454  11.92953048  12.26241734
Au  10.28328290  10.43056933  9.93187435
Au  14.82919095  9.80990735  10.54528861
Rh  12.84385089  11.60066294  9.85063553
Rh  11.98381552  12.93173064  11.85902379
Rh  12.39402041  10.15539067  11.89676483
Rh  10.30243885  11.25450851  12.63900542
13
# Structure 584   	  Energy =  -3.2608 eV/atom
Au  12.50693709  10.93557040  14.31580868
Au  15.46919399  10.46872486  10.26486876
Au  10.50213623  14.20295149  11.30880454
Au  12.85660675  9.78033224  9.53233017
Au  10.20922145  9.89249673  10.21185127
Au  12.27368324  9.22970230  12.18238251
Au  15.76764765  13.08902110  11.19432942
Au  13.19882501  14.26857170  11.43653958
Au  8.72341103  12.12185367  10.77940709
Rh  11.28391294  11.73250402  11.98406114
Rh  13.65090183  11.60014150  11.94790175
Rh  13.67740400  12.34496703  9.60227238
Rh  11.32730496  12.28586910  9.61046821
13
# Structure 573   	  Energy =  -3.2607 eV/atom
Au  12.86706509  13.86564907  10.64521989
Au  15.00060705  9.21763677  10.18992655
Au  16.68666446  11.14757841  11.00111274
Au  15.51060914  13.54377734  10.50058198
Au  12.73684363  9.38105970  8.52111969
Au  12.74642438  9.08093850  11.69935240
Au  8.96926131  11.34941522  10.06872641
Au  10.10533299  9.37418635  11.50586481
Au  10.21639296  13.69996517  10.58729752
Rh  11.57593866  11.63728196  9.28427525
Rh  14.04025896  11.47096499  11.61935737
Rh  14.00883412  11.62936857  9.22656289
Rh  11.60197274  11.56529267  11.66087750
13
# Structure 947   	  Energy =  -3.2607 eV/atom
Au  14.97072720  13.54550117  9.72926546
Au  14.49055373  9.28935058  11.22550191
Au  16.25012808  11.28488346  10.63548546
Au  12.34292398  8.74450231  9.58546338
Au  11.65806031  12.96307478  12.78450877
Au  9.69031209  13.48555023  9.42193830
Au  9.78740681  9.17883750  10.47554061
Au  9.51918948  11.67199984  11.55503068
Au  12.29544660  13.68711180  10.05531993
Rh  13.93849235  12.04961293  11.79840108
Rh  13.60699674  11.18325539  9.40475747
Rh  11.16748561  11.26182364  9.35681638
Rh  12.02387002  10.50139928  11.67281788
13
# Structure 293   	  Energy =  -3.2604 eV/atom
Au  9.22376228  9.88654911  10.41064524
Au  11.66302411  8.78220360  10.80349046
Au  14.32708388  9.32112697  10.60374512
Au  15.79506822  11.07315123  12.37143635
Au  12.05445340  12.67593587  13.85649365
Au  8.74465980  12.53065268  11.00377462
Au  15.24425350  11.91108287  9.74652624
Au  13.34524875  13.85467117  9.30298697
Au  11.25416476  13.64585533  11.07644807
Rh  10.77023167  11.13206039  12.05689975
Rh  12.53041846  11.35304450  10.21498596
Rh  13.09739333  10.52049542  12.64686355
Rh  13.80077085  12.82880986  11.83634246
13
# Structure 290   	  Energy =  -3.2603 eV/atom
Au  13.00136182  14.33313540  11.05404426
Au  10.42539374  13.52350781  10.80228825
Au  9.10129425  11.50836477  12.24815843
Au  16.33042669  10.80361956  11.06122186
Au  15.29001087  13.18062402  10.19714230
Au  13.00986105  10.21892044  13.87749617
Au  12.04267899  9.22553618  9.20256093
Au  13.94612999  9.47725387  11.16233827
Au  9.96585878  10.97094887  9.61548669
Rh  12.56103161  11.73418927  10.28835858
Rh  11.77687128  12.31879649  12.74721539
Rh  14.18608902  12.00169101  12.23870830
Rh  11.32754041  10.04304430  11.75706657
