13
# Structure 207   	  Energy =  -2.5584 eV/atom
Au  13.77198469  13.84959636  11.09997903
Au  14.68538155  11.45179765  12.65936374
Au  11.15208214  13.84807937  11.11634026
Au  16.33916778  12.95430049  11.10402488
Au  8.57338847  12.98165216  11.09877862
Au  10.20228494  11.41927445  12.61861629
Au  12.44846738  10.04497966  8.78008639
Au  14.68610408  11.42731906  9.56698124
Au  12.45140731  10.10267099  13.47589108
Au  11.04041457  9.18305743  11.13970391
Au  13.92092461  9.21305232  11.12881124
Au  10.21349654  11.40394372  9.59565784
Rh  12.46022710  11.52019980  11.11027149
13
# Structure 987   	  Energy =  -2.5524 eV/atom
Au  13.92104928  13.33877438  12.11296335
Au  16.24748601  13.22358014  10.70490190
Au  13.95333574  12.22658829  9.54331586
Au  12.62186543  9.82304811  9.55844972
Au  11.27479293  12.23662520  9.58672077
Au  8.94206501  13.24494310  10.66859879
Au  12.60045017  12.28029496  14.27109241
Au  11.19376223  13.33833699  12.18075941
Au  15.32579953  10.86437731  11.65427357
Au  13.93675212  8.62706766  11.87027707
Au  11.18905641  8.61797459  11.72815040
Au  9.80257582  10.86918858  11.63589512
Rh  12.56227515  10.94197918  11.96600383
13
# Structure 131   	  Energy =  -2.5514 eV/atom
Au  8.95336788  9.72097056  11.71046525
Au  12.91076882  10.92345021  8.54531480
Au  10.54756060  10.91562110  9.85863463
Au  14.20375391  8.99081738  11.83172950
Au  16.83749384  9.63811993  11.60459605
Au  15.27612023  11.04595794  9.85190776
Au  11.58372519  9.00816596  11.85913360
Au  10.59476228  11.69279341  12.64884107
Au  11.53164325  13.45794564  10.63114118
Au  15.25832922  11.58832377  12.66753184
Au  14.28891317  13.53294492  10.88515954
Au  12.94128982  12.79411744  13.42665237
Rh  12.91193079  11.26234823  11.20590484
13
# Structure 1051   	  Energy =  -2.5494 eV/atom
Au  13.98102894  9.60724204  10.33515215
Au  16.36773206  9.63919897  11.65016653
Au  14.03964404  10.23101310  13.02666755
Au  12.47165836  10.97720270  8.52264447
Au  15.33107047  12.08236449  11.21009123
Au  11.25607043  9.55912560  10.54381820
Au  8.99364346  9.54464088  12.08308742
Au  11.35592572  10.43393502  13.20383597
Au  12.90103106  12.67974619  13.53129240
Au  9.83094802  11.96820676  11.28622954
Au  11.17369108  14.16605992  10.75975292
Au  13.85210600  14.28553625  11.42554595
Rh  12.59805586  11.93620458  10.99541367
13
# Structure 19   	  Energy =  -2.5492 eV/atom
Au  9.05811962  12.64281035  10.41970955
Au  12.64281035  14.30983338  10.41970955
Au  14.30983338  10.72514265  10.41970955
Au  10.72514265  9.05811962  10.41970955
Au  9.89144419  10.85429733  12.38729417
Au  10.85429733  13.47650881  12.38729417
Au  13.47650881  12.51365567  12.38729417
Au  12.51365567  9.89144419  12.38729417
Au  10.83976246  13.46924137  8.44887438
Au  9.89871163  10.83976246  8.44887438
Au  12.52819054  9.89871163  8.44887438
Au  13.46924137  12.52819054  8.44887438
Rh  11.68397650  11.68397650  10.41616728
13
# Structure 384   	  Energy =  -2.5491 eV/atom
Au  12.56633773  9.87825621  8.91437158
Au  13.36519179  12.56633773  8.91437158
Au  10.67711027  13.36519179  8.91437158
Au  9.87825621  10.67711027  8.91437158
Au  12.56633773  9.87825621  12.85449242
Au  13.36519179  12.56633773  12.85449242
Au  10.67711027  13.36519179  12.85449242
Au  9.87825621  10.67711027  12.85449242
Au  14.32549485  10.83879170  10.88443200
Au  12.40465630  14.32549485  10.88443200
Au  8.91795315  12.40465630  10.88443200
Au  10.83879170  8.91795315  10.88443200
Rh  11.62172400  11.62172400  10.88443200
13
# Structure 1113   	  Energy =  -2.5491 eV/atom
Au  11.76761611  11.95485405  8.91656824
Au  11.24811128  14.09096352  10.81321141
Au  9.77027317  11.95525888  11.41956484
Au  8.95312360  9.48073022  12.02932424
Au  11.15782696  9.65001853  10.37311028
Au  13.73771572  10.12608147  9.62948955
Au  16.16834310  9.56257427  10.77659156
Au  13.95192460  9.59538836  12.40921520
Au  15.29061097  11.98535158  11.51342321
Au  11.38575786  10.00386642  13.18328390
Au  13.33235193  11.85074410  13.94647179
Au  13.76849617  14.08776982  12.13566354
Rh  12.52649103  11.84665077  11.43645752
13
# Structure 700   	  Energy =  -2.5489 eV/atom
Au  11.22767463  12.62393578  9.24453964
Au  12.91207244  10.40972542  14.01630887
Au  11.86068083  8.85048121  12.02037790
Au  9.43384722  10.10252850  11.53858583
Au  9.40103074  12.83056296  11.31546388
Au  11.30131343  9.89055138  9.50488634
Au  14.33014614  10.06416046  11.70545150
Au  16.19820721  11.40513620  10.25094470
Au  13.63269668  11.30406132  9.26062581
Au  14.29874245  12.94619520  11.44503683
Au  11.80582972  14.18416732  11.47496617
Au  12.86673910  13.12051607  13.76466229
Rh  11.83916670  11.51530369  11.72591039
13
# Structure 627   	  Energy =  -2.5488 eV/atom
Au  11.47231293  11.83247394  8.85303132
Au  13.90460076  14.16797194  11.79321858
Au  9.78433720  12.13317591  11.29167874
Au  11.36144310  14.17954872  10.56910055
Au  8.80663066  9.77978033  12.12545776
Au  13.38586344  12.09878537  13.76381820
Au  11.19229937  10.51319589  13.28538650
Au  11.07659829  9.62432061  10.58152942
Au  13.61071602  9.63390374  12.34599623
Au  15.85876868  9.41872502  10.78011856
Au  13.52320556  10.04439262  9.47361103
Au  15.31580037  11.90755315  11.58288223
Rh  12.57936761  11.92472576  11.24632589
13
# Structure 748   	  Energy =  -2.5487 eV/atom
Au  11.61799065  11.91720121  8.96746564
Au  11.25542001  14.11715017  10.82654959
Au  13.79043848  14.08251433  12.09539379
Au  9.75297010  11.95215172  11.29775955
Au  13.34736606  11.76027231  13.95418091
Au  13.75325111  9.52155189  12.27632453
Au  15.26665466  11.92774255  11.56107270
Au  13.75602703  10.27416778  9.52350116
Au  16.07457348  9.50282921  10.77627075
Au  11.24436633  10.11885717  13.24984337
Au  8.91316567  9.50345854  11.94599578
Au  11.27775244  9.55463687  10.48156188
Rh  12.50413549  11.86285373  11.46024102
13
# Structure 699   	  Energy =  -2.5487 eV/atom
Au  9.58060378  11.94488740  11.14837547
Au  11.38508591  9.97802685  13.23410654
Au  9.00427599  9.46021296  11.94733560
Au  11.47812225  12.03293114  8.94381840
Au  13.51666291  14.14785806  12.24729464
Au  13.43250731  11.77244108  13.85699537
Au  11.06032937  14.16269410  10.83888311
Au  11.25680023  9.60497740  10.38541496
Au  13.83020035  9.59873541  12.11069582
Au  16.09837162  9.79804943  10.57776099
Au  13.67820783  10.45945175  9.41707954
Au  15.06842947  12.14596547  11.35974274
Rh  12.30462824  11.89719045  11.47196352
13
# Structure 1143   	  Energy =  -2.5487 eV/atom
Au  11.72405527  11.78910149  13.97358780
Au  11.36943713  14.02967795  12.22397494
Au  9.80748426  11.94421006  11.59699381
Au  8.95614947  9.53441408  10.78918363
Au  11.16450477  9.52003478  12.44762468
Au  11.42812561  9.93665427  9.67398702
Au  13.99634987  9.54917355  10.50541053
Au  16.19289712  9.55051532  12.17296188
Au  13.75393326  14.00861217  10.65773835
Au  15.28377830  11.96596909  11.46313901
Au  13.71687610  9.99967272  13.27542244
Au  13.36796099  11.76409985  8.93180768
Rh  12.54117186  11.76624668  11.44920967
13
# Structure 447   	  Energy =  -2.5485 eV/atom
Au  13.30556728  9.94767891  9.17307151
Au  11.26495035  9.17005705  11.08623408
Au  12.08319675  9.96240434  13.68046369
Au  14.02678319  8.92684633  11.87416135
Au  10.97251051  11.36655741  9.38636190
Au  10.27462365  11.56952016  12.28505603
Au  17.00921157  12.99696743  11.09361311
Au  9.21319043  13.20914218  10.39552449
Au  14.42523405  13.50093991  11.43707788
Au  15.50111754  10.87391041  10.67715020
Au  11.80390972  13.75418964  11.02274267
Au  12.59066064  12.73896237  13.59974698
Rh  12.89302231  11.30457738  11.41686475
13
# Structure 1050   	  Energy =  -2.5482 eV/atom
Au  13.17595207  10.24304185  13.65192124
Au  14.07738074  12.72045373  12.85816412
Au  16.38012995  12.92787488  11.33572134
Au  11.07409729  8.49541654  10.80284575
Au  13.69419416  8.33753592  11.66941873
Au  15.25877608  10.48559297  11.42219305
Au  13.94950904  12.86167712  10.11372994
Au  9.03074639  13.15715014  12.19590174
Au  12.19986227  11.46344525  8.56514402
Au  11.24411397  13.08541510  10.56838232
Au  9.78973411  10.71616177  11.40839974
Au  11.43487545  12.32031700  13.24854699
Rh  12.53175398  10.69548774  11.09076400
13
# Structure 47   	  Energy =  -2.5485 eV/atom
Au  9.84158603  9.34428661  11.43354567
Au  10.13920247  10.98378974  9.19387375
Au  11.66943772  13.31371320  9.38573303
Au  13.29401997  13.72586139  11.61261433
Au  12.99640353  12.08635826  13.85228625
Au  11.46616828  9.75643480  13.66042697
Au  10.90202967  13.75592180  13.06385407
Au  13.81177170  10.01129072  12.17487150
Au  9.31023057  11.46964706  13.16274515
Au  12.23357633  9.31422620  9.98230593
Au  9.32383430  13.05885728  10.87128850
Au  13.82537543  11.60050094  9.88341485
Rh  11.56780300  11.53507400  11.52308000
13
# Structure 490   	  Energy =  -2.5476 eV/atom
Au  12.77238533  13.24738069  12.77650857
Au  12.45390521  13.90511539  10.04847434
Au  13.12997747  10.34370229  12.86880153
Au  17.15189020  11.79835192  10.82793195
Au  14.77955706  12.94875733  10.98447950
Au  15.09952621  10.15472066  11.00193607
Au  10.44445029  9.42678287  12.08377219
Au  10.23335454  9.95155963  9.36074802
Au  12.72888064  9.17953383  10.29922451
Au  10.08013267  12.75242000  9.18368843
Au  10.75819031  11.59803603  13.74538242
Au  10.04799429  13.50152281  11.85371380
Rh  11.63203145  11.54471869  10.99852115
13
# Structure 333   	  Energy =  -2.5476 eV/atom
Au  12.40365030  14.46558118  9.59179673
Au  14.78617422  14.15505303  10.87731858
Au  11.46971483  10.91729211  12.50912742
Au  13.86404988  12.12664123  9.24294241
Au  9.90986504  14.37833273  10.73265522
Au  12.08802368  13.58101571  12.26240121
Au  8.93749932  11.89084569  11.31006852
Au  14.04534694  11.72178520  12.24743228
Au  12.78550991  9.74423410  10.13927217
Au  10.11327334  9.56379337  10.45200960
Au  15.42991856  10.14034353  10.42389935
Au  16.62120570  12.31824473  11.57948744
Rh  11.23943558  12.04888838  10.05313557
13
# Structure 1116   	  Energy =  -2.5475 eV/atom
Au  11.82270540  11.76344768  14.02526627
Au  11.06030269  9.62331862  12.44165204
Au  8.83795320  9.72582251  10.81344704
Au  11.48929394  14.07491949  12.34827721
Au  9.91864540  12.09998562  11.45636999
Au  11.31270368  10.15099299  9.70552889
Au  13.67705385  9.85347949  13.13214460
Au  13.14293739  12.06852737  8.94267371
Au  13.94369761  9.74302659  10.26884837
Au  16.11003057  9.41196063  11.93770293
Au  15.38719111  11.94210891  11.49000785
Au  13.92051229  14.07714881  10.85056784
Rh  12.65388536  11.83507881  11.52896176
13
# Structure 231   	  Energy =  -2.5472 eV/atom
Au  10.47985663  11.72595836  12.55403149
Au  12.56050695  13.67963524  12.19155036
Au  11.21953395  13.02142256  9.77446824
Au  8.77658746  12.06055288  10.44080007
Au  10.55166423  10.01544476  10.12776335
Au  13.88529181  13.23654539  9.68351989
Au  16.52760124  12.73758217  10.10432007
Au  15.04439839  10.47234729  9.92896256
Au  12.82321143  11.39009556  13.88400384
Au  12.91079670  8.75177972  9.99769096
Au  14.24704923  9.43803285  12.44858122
Au  15.01712741  12.15507410  12.31532820
Rh  12.71217774  11.20285176  11.12325749
13
# Structure 503   	  Energy =  -2.5471 eV/atom
Au  11.83838112  12.84363443  12.95712921
Au  14.49369300  13.48644022  11.77999447
Au  11.99471886  13.85273752  10.34614826
Au  14.18741384  11.55731548  13.70967666
Au  7.73465196  11.10953511  10.73864660
Au  10.09583271  9.97497866  11.05541506
Au  9.73620138  12.74273324  11.25218216
Au  14.22913861  12.87859160  9.07700272
Au  12.40948738  8.86821453  10.33313253
Au  14.63604810  10.14036350  9.23332650
Au  14.72472873  9.53847038  11.91544356
Au  12.03252651  9.90974201  12.97732835
Rh  13.03454081  11.41422382  10.99511038
