13
# Structure 20   	  Energy =  -4.9162 eV/atom
Au  13.05509947  8.42411752  10.25332516
Au  13.67075218  13.32959619  11.53158915
Rh  11.55768506  10.46489529  11.42697487
Rh  13.92470892  10.74496591  11.39742733
Rh  13.44939287  13.19589665  8.90210351
Rh  11.51902299  10.44446613  9.07164867
Rh  13.85418452  10.82756979  8.98212555
Rh  8.82377353  12.40059255  11.44781992
Rh  9.21930743  10.02896699  11.47427551
Rh  11.14110871  12.81618268  11.43618928
Rh  11.12808352  12.79272782  9.05020980
Rh  8.79021127  12.39153820  9.04523402
Rh  9.18544653  10.01106304  9.07813971
13
# Structure 23   	  Energy =  -4.9123 eV/atom
Au  9.88034386  8.38180563  10.07138228
Au  13.91637395  9.77929511  11.47920309
Rh  9.44549158  13.11942884  11.54994282
Rh  11.41207433  10.35115625  11.37236749
Rh  9.10171516  10.71935014  11.41525307
Rh  9.40221277  13.24996556  9.14413761
Rh  11.39673065  10.49133631  9.00408972
Rh  9.05327592  10.84838931  9.02237284
Rh  14.13143776  12.37131022  11.41373970
Rh  11.78516199  12.70472003  11.46940710
Rh  11.74151622  12.83999901  9.10442192
Rh  14.08891581  12.49444994  9.00494865
Rh  13.72392429  10.13512284  8.87972768
13
# Structure 19   	  Energy =  -4.8996 eV/atom
Au  13.21214962  14.23060218  10.11606209
Au  14.21490602  11.92780830  11.54520922
Rh  13.56587148  9.41774347  11.42089283
Rh  11.67087504  12.32443510  11.40950944
Rh  13.50952435  9.42504557  9.00323384
Rh  11.63190470  12.23352161  9.03875573
Rh  13.93891632  11.78553062  8.91996724
Rh  8.91283157  10.39647509  11.50921643
Rh  9.36437314  12.75639320  11.43108874
Rh  11.25119091  9.97456305  11.45143961
Rh  11.17781453  9.89355956  9.08815880
Rh  8.84459872  10.33279710  9.10730172
Rh  9.30385559  12.70430334  9.03832578
13
# Structure 1154   	  Energy =  -4.8944 eV/atom
Au  11.30911872  15.31162412  11.33102335
Au  9.10222187  11.39702294  9.31633713
Rh  11.14676563  10.87808010  14.07940481
Rh  11.53993134  10.30708711  9.66693436
Rh  13.88736690  9.94264159  10.71357653
Rh  13.29915065  11.47304356  12.68474018
Rh  9.91936853  11.16615076  11.87888376
Rh  11.81562755  9.57222116  12.04527233
Rh  13.40209332  13.63359715  11.31729127
Rh  15.34695209  12.00070078  11.19571265
Rh  13.51809084  12.01286314  9.42271560
Rh  11.23880111  12.75405823  10.31475891
Rh  11.32579321  13.05632224  12.84012953
13
# Structure 46   	  Energy =  -4.8942 eV/atom
Au  9.01154720  13.62800148  11.43944120
Au  10.07376087  8.45908606  10.34536776
Rh  11.55710886  12.83877440  11.46947660
Rh  11.62437782  12.92360499  9.09053713
Rh  13.95321953  10.41363099  11.45337006
Rh  13.88732294  12.80844971  11.49412946
Rh  13.91751506  10.44829768  9.05540680
Rh  13.93002649  12.85676597  9.10099405
Rh  11.58316100  10.46709760  11.46279978
Rh  9.21410888  10.91501607  11.51759077
Rh  11.52433211  10.51950179  9.10645877
Rh  9.12831294  10.72974217  9.12613997
Rh  9.26852331  13.11421400  8.87461915
13
# Structure 396   	  Energy =  -4.8870 eV/atom
Au  15.55577145  11.96955878  9.73428920
Au  8.78527954  10.82753148  10.57052845
Rh  12.54835972  13.26612384  12.89194913
Rh  14.03508040  11.37464332  11.94713609
Rh  12.68616127  9.23893188  12.13394196
Rh  11.52321761  14.77414687  11.27285331
Rh  13.57547112  13.58786908  10.53590004
Rh  13.73156252  9.93181554  9.88979331
Rh  10.26178450  12.99660025  10.36144073
Rh  12.23881087  11.89646248  9.56818000
Rh  12.70285106  11.00018553  14.05370882
Rh  11.16263935  9.69029623  10.14755281
Rh  11.19838209  11.38885584  12.01498634
13
# Structure 1118   	  Energy =  -4.8864 eV/atom
Au  11.62591247  15.41431692  11.59192059
Au  8.91708028  11.75713529  9.24969714
Rh  10.96733209  10.78228218  14.01138366
Rh  11.29388169  10.47439653  9.58658952
Rh  13.68006574  9.87809252  10.50559940
Rh  13.16588715  11.28885708  12.57990003
Rh  9.81381711  11.20737323  11.77116504
Rh  11.59680712  9.52640545  11.91348640
Rh  13.42912783  13.49010247  11.33512189
Rh  15.25565618  11.76474265  11.09724544
Rh  13.36816456  12.04404162  9.34069022
Rh  11.15630145  12.97908600  10.28920712
Rh  11.30953539  12.95798856  12.80233755
13
# Structure 910   	  Energy =  -4.8814 eV/atom
Au  15.28550540  13.57767541  10.15288597
Au  8.54737801  11.83436844  9.81262074
Rh  11.68196032  9.52396460  11.22897175
Rh  9.83644043  10.80853040  11.95964241
Rh  10.95169612  12.77888880  10.85870567
Rh  10.94253025  10.80020405  9.18906778
Rh  14.02120563  8.68818456  11.59851465
Rh  13.32329304  9.68997121  9.32927625
Rh  13.16493526  10.79158356  12.71671994
Rh  14.81442364  11.00526305  10.86569637
Rh  13.01961175  12.19762810  9.49532182
Rh  13.26405979  13.16493280  11.89738353
Rh  11.30344900  12.20744776  13.33895804
13
# Structure 115   	  Energy =  -4.8765 eV/atom
Au  8.98841517  13.69939215  10.82490087
Au  14.60293833  9.55502179  11.03955674
Rh  11.32467274  12.64510136  9.10005913
Rh  10.32271388  9.32732262  8.79247033
Rh  9.25441345  11.44440655  9.23829247
Rh  10.23787908  8.79904055  11.10885915
Rh  9.56416346  11.12895591  11.55226665
Rh  11.48001593  12.85063532  11.50323075
Rh  13.90459627  12.16333211  11.64123708
Rh  13.49069891  13.68422887  9.62981603
Rh  14.53172766  11.55977928  9.22116293
Rh  12.38470973  10.52119737  9.06206457
Rh  12.07257200  10.38963835  11.43312345
13
# Structure 338   	  Energy =  -4.8692 eV/atom
Au  11.83626076  12.45655363  14.50200416
Au  11.88868388  14.84651850  9.69013526
Rh  9.66558018  12.18956339  12.74860456
Rh  8.47738484  11.25031372  10.82943765
Rh  9.82578394  13.27463667  10.46848355
Rh  13.90442397  13.14797220  10.49840087
Rh  10.36843661  9.93849628  10.26010328
Rh  11.73048296  11.93092701  9.96541084
Rh  12.44291110  8.88581503  10.99570283
Rh  13.89939359  10.62563082  10.22328369
Rh  11.96914674  13.60034192  12.09562841
Rh  13.80749593  11.67195743  12.56423509
Rh  11.56128972  10.88236319  12.25585130
13
# Structure 1102   	  Energy =  -4.8686 eV/atom
Au  14.17572217  13.94712789  12.14915460
Au  14.48533725  10.63683429  8.96863539
Rh  12.18467605  9.49084480  13.49563312
Rh  11.83111986  10.38887748  9.43351198
Rh  9.41285019  10.43867748  10.13104928
Rh  10.40468399  11.04135719  12.40750340
Rh  13.46427224  9.74646663  11.31977401
Rh  11.08049069  8.85301482  11.32468922
Rh  11.12909936  13.39250200  11.71236810
Rh  8.72945280  12.66688706  11.28912623
Rh  10.51531468  12.58379636  9.44465461
Rh  13.00432859  12.50002533  10.23998458
Rh  12.81074255  11.71794318  12.64892697
13
# Structure 63   	  Energy =  -4.8676 eV/atom
Au  12.83214826  13.78022337  11.01989014
Au  10.10667958  13.78343603  11.00576913
Rh  8.94422417  11.32065108  11.17432468
Rh  10.17093406  9.11454196  11.35025659
Rh  12.78446225  9.11505868  11.34428623
Rh  14.00775289  11.32336948  11.17018823
Rh  9.12622500  12.26905985  8.86269687
Rh  9.02816807  9.84529861  9.10638110
Rh  11.47376257  9.78704387  9.19811673
Rh  13.92112408  9.85480180  9.09908626
Rh  13.81914303  12.27694547  8.86489755
Rh  11.47190378  12.24061770  8.95447326
Rh  11.47566726  11.31898858  11.29776636
13
# Structure 970   	  Energy =  -4.8667 eV/atom
Au  9.03138874  12.99940044  12.65679877
Au  14.28463722  12.60459091  13.33170298
Rh  10.43683076  11.27538276  10.05743699
Rh  9.88168044  10.49731026  12.29123126
Rh  11.44956518  8.65913549  12.02890314
Rh  11.47744124  9.04347737  9.66662621
Rh  10.72509893  13.66366019  10.68483897
Rh  13.32051826  13.21355115  10.80497452
Rh  11.95317831  12.80203011  8.67477866
Rh  13.00463747  10.87028922  9.91620928
Rh  11.74817910  12.03561894  12.37485943
Rh  15.07134564  11.38807071  11.04867871
Rh  13.28081164  10.15747886  12.31299657
13
# Structure 859   	  Energy =  -4.8638 eV/atom
Au  11.64127691  13.39364301  8.81511410
Au  14.46292243  9.08719529  10.93468323
Rh  8.65217930  11.56913470  11.37874422
Rh  13.32792743  13.47102747  11.02821567
Rh  12.86240971  11.24605568  9.90575923
Rh  12.52209091  12.53814719  13.33849613
Rh  14.45384285  11.52370557  12.05926490
Rh  10.39117929  10.88237565  9.49679806
Rh  9.98482072  9.43776084  11.50064288
Rh  11.92397346  8.85149380  10.02217703
Rh  12.25925593  10.21656833  12.25239228
Rh  10.22635178  11.20053673  13.35487158
Rh  10.98258163  12.54847710  11.32324219
13
# Structure 364   	  Energy =  -4.8625 eV/atom
Au  8.97426547  10.26944149  9.64150929
Au  10.79335123  11.96169940  14.43422325
Rh  12.01463140  9.96259072  13.06630012
Rh  10.01349248  11.25121780  11.94471821
Rh  10.78640662  13.61036290  12.15977981
Rh  13.49738931  8.68835047  11.56789043
Rh  11.25548799  9.28038040  10.69385020
Rh  10.15537117  12.74007319  9.87482677
Rh  14.32332426  10.69892295  10.63432604
Rh  12.14084323  11.24238017  9.73906277
Rh  14.78230869  13.00807949  11.00510628
Rh  12.55474693  13.67181527  10.25568626
Rh  12.76979293  12.05032691  12.20761658
13
# Structure 784   	  Energy =  -4.8585 eV/atom
Au  12.31843132  12.88744697  8.41030285
Au  8.35693568  11.87585719  10.94043564
Rh  14.50116787  9.95586992  11.95305716
Rh  13.08976799  13.99674673  10.85792641
Rh  13.67630850  11.58039090  10.32434565
Rh  11.95284900  13.37002879  13.02752678
Rh  14.30988848  12.54074308  12.57415455
Rh  11.92057690  10.26590943  9.38766961
Rh  10.25731542  9.99537955  11.30671980
Rh  12.46348766  8.71622079  11.26629975
Rh  12.23842342  10.86304141  12.64211528
Rh  9.96845136  11.85559347  13.12190038
Rh  11.02423389  12.45543190  10.80047670
13
# Structure 867   	  Energy =  -4.8577 eV/atom
Au  11.93956724  13.36674384  8.79851709
Au  15.28885476  11.85092916  11.27322084
Rh  9.56136560  9.13285217  11.00074441
Rh  10.30210598  13.49169194  11.09539153
Rh  10.71929417  11.17593024  9.92549947
Rh  11.23600936  12.57544345  13.28347207
Rh  9.28382050  11.42082760  12.04660069
Rh  13.22991227  10.93778805  9.49421254
Rh  13.86263497  9.52395388  11.49722276
Rh  11.90026206  8.81403075  10.06605101
Rh  11.53184759  10.15952513  12.23030773
Rh  13.48229539  11.30186909  13.29592034
Rh  12.68853595  12.61039019  11.25994566
13
# Structure 105   	  Energy =  -4.8567 eV/atom
Au  9.05720649  13.73882751  10.65772444
Au  14.23906296  9.35749822  10.92507461
Rh  11.18845559  12.58594504  8.86272002
Rh  10.09658880  9.20261211  8.68277240
Rh  9.14621699  11.40942205  9.08144998
Rh  10.13003433  8.83127042  11.04711296
Rh  9.43786940  11.18094241  11.41735422
Rh  14.42400932  11.46831953  9.04482221
Rh  13.83486774  12.01567434  11.46792574
Rh  13.35687926  13.54048725  9.41138443
Rh  11.53148071  12.97426986  11.31017430
Rh  12.25134706  10.35116955  8.93004031
Rh  11.85720402  10.53062458  11.28157538
13
# Structure 1150   	  Energy =  -4.8555 eV/atom
Au  13.13267970  11.49267096  8.61226021
Au  13.51526586  11.92102385  13.74170105
Rh  9.61273866  8.70648082  10.64888967
Rh  9.25462165  11.08523494  11.29818540
Rh  10.81323280  11.69975020  13.01786181
Rh  9.83963448  9.28899623  13.03048039
Rh  12.23839829  9.70017957  12.62705229
Rh  13.78831379  11.02795770  11.21319893
Rh  12.23538740  12.88490301  11.39432477
Rh  10.37564159  14.05679257  12.56370748
Rh  8.89223546  13.43664497  10.83725230
Rh  10.76202508  12.34233631  9.63578497
Rh  11.59078577  9.97879859  10.23735453
13
# Structure 193   	  Energy =  -4.8549 eV/atom
Au  12.71010998  9.18987455  12.20531962
Au  13.59851878  8.89463353  9.27284632
Rh  13.25303944  14.11048888  11.73156471
Rh  11.54564921  12.41535267  9.30756705
Rh  13.52047719  13.86038113  9.39086717
Rh  9.36001790  11.16335574  8.94243871
Rh  11.26607217  12.68923062  11.61623096
Rh  9.22956729  13.33565478  10.42163481
Rh  10.38679119  10.47973714  12.00050753
Rh  8.31930779  11.20691514  11.13318756
Rh  11.25297575  9.93996637  9.84363308
Rh  13.79188356  11.47317829  9.68448054
Rh  13.50661040  11.68544353  11.97850293
