13
# Structure 765   	  Energy =  -3.7528 eV/atom
Au  16.15820988  12.26921936  11.75430663
Au  14.00076435  12.45026273  13.34655650
Au  9.48753157  12.40534201  10.26865569
Au  11.64821724  12.64075528  14.55292925
Au  9.43353730  12.48039128  12.96681787
Au  12.71665068  15.83344113  10.53086980
Au  12.46310272  8.79051022  10.86814294
Rh  13.87526417  11.08569688  10.83092264
Rh  13.94627541  13.45019403  10.68128560
Rh  11.71034898  11.23458334  12.06610963
Rh  11.77445944  13.59269858  11.91878598
Rh  11.73547870  11.06808479  9.62406889
Rh  11.82095931  13.48334038  9.47172908
13
# Structure 335   	  Energy =  -3.7516 eV/atom
Au  14.85964567  11.88935169  13.01466010
Au  14.87557470  12.79071141  10.35953106
Au  14.81465231  9.98779732  10.94632833
Au  12.57214006  12.36183714  14.55210848
Au  12.54961887  14.03477027  9.39341978
Au  12.41473682  8.57441353  10.57574371
Au  8.20947496  11.71041555  11.48398846
Rh  10.34273862  10.17215578  11.01604841
Rh  10.47928710  11.96693956  12.92683807
Rh  10.47798827  12.75950405  10.48351105
Rh  12.61686385  13.17595123  11.95149204
Rh  12.56221506  11.33550836  10.12546914
Rh  12.51533472  10.50670982  12.48896839
13
# Structure 597   	  Energy =  -3.7517 eV/atom
Au  14.79491600  13.30714316  11.73465837
Au  12.55361662  9.71460032  14.14204031
Au  12.40594112  14.76296408  11.86011593
Au  14.86103095  10.74484362  12.92039210
Au  14.85285532  10.99481106  10.10706766
Au  8.19526796  11.51394387  11.58720290
Au  12.53878298  10.23943687  8.70860255
Rh  10.47093438  10.71004155  12.79081282
Rh  10.32037049  13.12415985  11.71402665
Rh  12.62531255  10.00825003  11.42972101
Rh  12.51582266  12.19890241  12.89209584
Rh  12.50933600  12.44140398  10.39141960
Rh  10.46251397  10.94797549  10.23386825
13
# Structure 851   	  Energy =  -3.7514 eV/atom
Au  15.01716467  8.96924025  11.25404349
Au  12.46204295  9.11802563  10.49227200
Au  10.54685918  14.09228511  11.06786045
Au  9.83549958  9.42558925  10.33314741
Au  8.94420669  11.97197236  10.59085018
Au  15.69879809  13.53522269  10.46389584
Au  11.76467214  11.15931850  14.75944190
Rh  13.46842321  10.83564627  12.67142011
Rh  14.09370741  11.39266253  10.47046166
Rh  11.07195605  11.16326488  12.07329431
Rh  11.65554479  11.72838160  9.85725038
Rh  12.40517654  13.00444639  12.91917191
Rh  13.11899896  13.61246554  10.72107608
13
# Structure 614   	  Energy =  -3.7515 eV/atom
Au  11.95834414  10.24616105  14.53115045
Au  16.28427322  11.45543038  11.62370256
Au  9.63351328  10.58254474  10.30359949
Au  9.63263164  10.93643906  13.11557568
Au  11.96062170  9.55217842  9.11120259
Au  12.04631203  14.66001480  11.23498308
Au  9.67333394  13.18525570  11.41019271
Rh  14.13618632  13.03127256  11.43466488
Rh  14.03087954  10.58595022  10.42872598
Rh  14.03212853  10.90516842  12.99358665
Rh  11.87258034  9.95503810  11.81104370
Rh  11.96040129  12.07396310  10.27320100
Rh  11.96346254  12.39582746  12.79118572
13
# Structure 686   	  Energy =  -3.7508 eV/atom
Au  11.99195238  11.44286665  14.49466650
Au  16.31147169  11.66854061  11.36606567
Au  9.62759631  10.34072496  10.42562417
Au  9.68629069  11.61337275  12.92771852
Au  11.97976220  9.02602336  9.62853739
Au  12.05094110  14.56749491  10.00874101
Au  9.66850823  13.21335765  10.63024781
Rh  14.13026271  13.05054232  10.67229064
Rh  14.08211516  10.41620675  10.49555164
Rh  14.04247867  11.56222559  12.80193089
Rh  11.94284826  10.24343316  12.03034253
Rh  11.91684907  11.78766579  10.01351344
Rh  11.99786351  13.01293000  12.22285328
13
# Structure 735   	  Energy =  -3.7508 eV/atom
Au  14.87227112  13.15840049  10.48364339
Au  12.48994227  14.46761799  9.76853919
Au  14.87693422  10.22558120  10.48049065
Au  12.60507177  11.74874558  14.44933252
Au  8.22163480  11.69402532  11.35742776
Au  14.86537464  11.68055571  12.85082697
Au  12.49713327  8.86800408  9.85874375
Rh  12.56342292  13.12973081  12.09668782
Rh  12.62689017  11.67543446  10.02082617
Rh  10.42823839  12.99136337  10.55685946
Rh  10.41815137  10.36231171  10.58285252
Rh  10.50694661  11.70843031  12.79337458
Rh  12.55510297  10.29054398  12.13052870
13
# Structure 415   	  Energy =  -3.7484 eV/atom
Au  8.57948287  11.80697153  11.27326409
Au  12.48469119  9.08675330  12.72956518
Au  14.95432700  10.35123811  12.37437201
Au  14.96143271  13.07215467  12.28583614
Au  12.03060453  11.22945472  8.20316846
Au  12.60129281  14.55668246  12.03499209
Au  10.14356453  10.44565198  13.17804047
Rh  10.92446553  10.34243918  10.63329574
Rh  10.40977417  13.15537202  12.69501793
Rh  12.50266162  11.78711575  12.28314355
Rh  13.37280845  10.11888128  10.24894050
Rh  13.58190561  12.57499207  10.04352814
Rh  11.08830924  12.77655265  10.33727101
13
# Structure 897   	  Energy =  -3.7475 eV/atom
Au  8.33694478  11.79742716  10.73328288
Au  14.71017767  11.50816123  12.93556637
Au  13.01724321  13.81540082  9.07053407
Au  12.60047023  8.56208656  10.32690324
Au  14.99929737  9.78312855  10.81249571
Au  15.27626315  12.56884149  10.37942651
Au  10.34615343  9.99755284  10.42701727
Rh  10.26003635  11.77489146  12.63601257
Rh  10.91377362  12.88709179  10.66163772
Rh  12.83884546  11.37840183  10.45670238
Rh  12.31273672  12.41548316  13.74584813
Rh  13.02402564  13.49497784  11.74775673
Rh  12.26115063  10.25450604  12.46528943
13
# Structure 918   	  Energy =  -3.7463 eV/atom
Au  10.32641040  9.99248823  10.45329716
Au  15.00707771  9.68272216  10.79332112
Au  12.56444453  8.53770676  10.32947015
Au  8.38203433  11.87362780  10.71453234
Au  14.72510320  11.36418086  12.97366125
Au  13.36141676  13.76614276  9.05614540
Au  15.45174995  12.44645853  10.49388328
Rh  12.24570048  10.26529004  12.42708656
Rh  10.32675916  11.89167153  12.52804593
Rh  11.07161630  12.93098574  10.55020916
Rh  12.92200087  11.34726775  10.41729806
Rh  12.36816596  12.43099907  13.70663977
Rh  13.17293552  13.45033135  11.71142179
13
# Structure 910   	  Energy =  -3.7448 eV/atom
Au  8.78280321  9.91397058  11.56576727
Au  16.31608413  9.73185407  11.92751934
Au  12.48236723  10.20220438  8.25337780
Au  11.45633222  14.44714544  11.48017810
Au  14.04329962  14.30093891  10.61441855
Au  15.27169825  12.14931565  11.53605039
Au  9.95115823  12.29072965  11.72442369
Rh  11.38113906  10.25353680  13.02223503
Rh  11.32543109  9.94806349  10.68095262
Rh  12.58470858  12.03031984  10.38287636
Rh  13.81368698  10.15221206  12.95207142
Rh  13.75886126  9.88203546  10.60516321
Rh  12.67938693  12.33513446  12.70519441
13
# Structure 160   	  Energy =  -3.7447 eV/atom
Au  9.13372741  14.45830423  11.11946585
Au  14.45642715  14.59051693  11.21242320
Au  15.80389086  12.23552532  11.02009535
Au  11.80397119  14.74654494  11.23521318
Au  9.32678614  10.20064170  11.52715563
Au  14.35016321  10.21822951  12.11028605
Au  12.25458777  11.33341385  7.88411058
Rh  13.01724653  12.58664917  12.59149403
Rh  10.51325792  12.53040708  12.31468571
Rh  10.74596156  12.28670757  9.96283583
Rh  13.23598795  12.32066689  10.24865361
Rh  11.99683499  10.22878707  10.33222425
Rh  11.74583183  10.38369608  12.68169972
13
# Structure 903   	  Energy =  -3.7442 eV/atom
Au  10.27814412  10.11895870  11.07273245
Au  12.37486282  14.15354110  8.93157054
Au  14.86990571  12.35517777  12.79171993
Au  14.94726114  10.36253803  10.86544279
Au  12.61840276  13.08219298  14.26934179
Au  12.62028650  8.83591348  10.74342234
Au  8.23253089  11.88637049  11.45738481
Rh  10.40535735  12.92531138  10.28365780
Rh  12.49542182  11.48941757  9.99765111
Rh  14.50543981  12.97005628  10.14513217
Rh  12.56348090  13.58772687  11.58112833
Rh  10.52523136  12.38830093  12.78854586
Rh  12.58021433  10.96018677  12.43998725
13
# Structure 794   	  Energy =  -3.7422 eV/atom
Au  15.40632168  12.39778505  12.33938155
Au  13.14379796  13.93024696  12.87732969
Au  12.11026353  11.66343571  8.20922098
Au  15.36394617  9.72954754  11.87210821
Au  12.90504693  8.45419254  12.03893922
Au  8.85110666  11.35330938  11.73957292
Au  10.60084442  9.60105052  12.98349072
Rh  13.51350748  12.75840282  10.40716853
Rh  13.66912488  10.34858135  9.93456081
Rh  12.92726732  11.12421316  12.39087091
Rh  11.23329205  10.22098717  10.48017856
Rh  11.04343583  12.66159556  10.55030390
Rh  10.97060370  12.46852274  12.99008428
13
# Structure 954   	  Energy =  -3.7420 eV/atom
Au  9.23273053  12.29500361  10.21566882
Au  12.74530200  13.03436966  14.19560323
Au  9.66885408  10.23168099  12.04109340
Au  14.15308484  9.75353090  10.65791402
Au  11.82128186  8.54180185  11.27455170
Au  16.31726676  11.38600767  10.52966155
Au  11.48778293  13.70445457  9.35957055
Rh  12.43252224  10.71529017  12.74649332
Rh  10.97356404  12.79707526  12.13918350
Rh  12.95993964  14.12199243  11.65365792
Rh  14.48344601  12.05958357  12.36273452
Rh  13.84869734  12.51863859  9.98803261
Rh  11.74398342  11.13257031  10.35683505
13
# Structure 554   	  Energy =  -3.7411 eV/atom
Au  9.26590893  10.54302126  10.45520969
Au  11.53878324  9.07957111  9.70693028
Au  15.84329246  11.59988917  11.07529519
Au  11.73325547  14.47009160  10.94564529
Au  9.28188894  13.20072264  11.00936688
Au  12.47674095  10.95760709  14.58783142
Au  14.05995844  13.39747170  10.01978260
Rh  13.71707255  10.54896015  9.78000195
Rh  11.24249348  9.96943083  12.26111741
Rh  11.73528351  11.81809713  10.43835225
Rh  13.33259956  12.64088911  12.46745616
Rh  10.89877683  12.32146477  12.91368931
Rh  13.69659665  10.24503262  12.21165981
13
# Structure 881   	  Energy =  -3.7383 eV/atom
Au  11.45802594  15.28891390  10.84738851
Au  10.50441229  10.34232888  11.77602371
Au  8.69633513  12.25362326  12.08151492
Au  13.62668297  12.82327917  14.19322520
Au  15.03788580  11.86123217  9.69698629
Au  15.77216432  12.28681920  12.32063940
Au  12.53521007  8.72173708  11.19453762
Rh  11.43370516  12.97103650  12.47508671
Rh  10.61518761  12.74423425  10.27343532
Rh  13.63624201  13.69846470  11.56766618
Rh  13.22015002  11.27670038  11.95141342
Rh  12.84326502  13.45021578  9.33633694
Rh  12.42737217  11.05522317  9.76741445
13
# Structure 795   	  Energy =  -3.7381 eV/atom
Au  11.98823997  14.70013661  9.10700627
Au  8.09105676  11.87867733  11.26580900
Au  10.07853055  10.02027423  11.41077267
Au  14.73552405  12.55730660  12.48832994
Au  12.38031298  8.78873402  10.68370543
Au  14.65192675  10.44902751  10.62687589
Au  12.44287350  12.99530388  14.25263179
Rh  13.76393554  12.90214362  9.87547563
Rh  10.26697708  13.03893073  10.22198513
Rh  11.93505039  11.28650943  9.70397502
Rh  10.29324915  12.52388415  12.70932869
Rh  12.44662665  11.17526935  12.12340201
Rh  12.31101113  13.75127056  11.70872855
13
# Structure 502   	  Energy =  -3.7372 eV/atom
Au  12.76230647  8.02786395  7.99653704
Au  10.45968630  6.61811652  7.20671558
Au  6.12835868  8.89902724  8.63616434
Au  10.16829850  11.93136550  8.42577204
Au  12.65533245  10.69194358  8.48162982
Au  9.41614899  8.42276881  12.02591442
Au  7.75991218  10.89025762  7.59736567
Rh  8.25991004  8.08474795  7.15803269
Rh  10.83809886  7.50495193  9.79195785
Rh  10.23136077  9.32184807  7.92335326
Rh  8.56413628  10.02526160  9.93616408
Rh  11.00784292  9.87166027  10.40208841
Rh  8.37968353  7.61385868  9.57067036
13
# Structure 362   	  Energy =  -3.7363 eV/atom
Au  15.93037929  12.08637932  10.92009567
Au  12.35102338  13.41922304  13.86970205
Au  9.77227776  9.40262263  11.73170777
Au  12.37467166  8.75689595  12.34300854
Au  11.25057845  12.80449865  9.14893606
Au  9.15697945  11.83202177  10.71081788
Au  10.69229687  14.06258985  11.61516628
Rh  14.29205281  9.94183101  10.90144000
Rh  13.69375863  11.83169787  9.38400657
Rh  13.26051027  13.16977034  11.29180882
Rh  13.80582343  11.32328354  12.77692232
Rh  11.48639687  11.50163922  12.04079116
Rh  11.88521864  10.25176131  10.07173687
