13
# Structure 299   	  Energy =  -3.9917 eV/atom
Au  11.68362557  11.45847413  8.18653152
Au  13.15419672  8.82616108  12.52075087
Au  8.71375334  11.49293060  12.00530563
Au  15.47006109  10.14294931  11.67259608
Au  13.14145261  14.16610902  12.47725868
Au  15.46716583  12.84217681  11.65213991
Rh  13.24335599  10.28146429  10.15002697
Rh  10.85110121  10.31608155  10.57478928
Rh  10.92989197  12.74177068  12.96631180
Rh  10.85704021  12.64246715  10.55707278
Rh  10.92858044  10.24801855  12.98201922
Rh  13.15917064  11.49423994  12.52344487
Rh  13.24857737  12.65847792  10.13030138
13
# Structure 284   	  Energy =  -3.9911 eV/atom
Au  15.21548388  9.88210738  12.18639326
Au  11.87384539  9.93455671  8.59034077
Au  12.75412814  9.88592519  13.65316979
Au  13.53202870  14.10473258  10.80098597
Au  8.84806794  12.40358370  11.51805228
Au  15.91724514  12.38885790  11.13131937
Rh  13.57199062  11.33684896  10.33304419
Rh  12.68493550  9.22033234  11.07691286
Rh  10.47243923  10.16414749  11.02028428
Rh  11.46518803  13.03406641  12.44759031
Rh  11.37537952  12.20458078  10.23364636
Rh  10.43387161  11.01747166  13.25406656
Rh  13.69498869  12.13531495  12.65623641
13
# Structure 279   	  Energy =  -3.9903 eV/atom
Au  15.14025425  10.15865639  10.51031941
Au  11.83939370  9.99848956  14.11323250
Au  12.67028857  10.20800446  9.06260305
Au  13.38037808  14.33335492  12.04049032
Au  8.74357135  12.66604374  11.24641570
Au  15.79611471  12.63813623  11.69949722
Rh  13.46110431  11.51219357  12.38976280
Rh  12.56968329  9.45123358  11.59059840
Rh  10.35278655  10.38655223  11.74953548
Rh  11.35436960  13.24053503  10.37904815
Rh  11.26798834  12.38291236  12.58256393
Rh  10.32537569  11.26172139  9.53217548
Rh  13.61272836  12.42560806  10.14209030
13
# Structure 808   	  Energy =  -3.9898 eV/atom
Au  16.17973417  10.49643998  11.29568132
Au  13.01246040  12.47733533  14.45717711
Au  12.17975499  12.99248965  9.40762620
Au  8.98102006  10.40283555  11.66634118
Au  11.69953989  8.48561760  11.83993703
Au  9.76506722  12.88730131  10.76484255
Rh  13.65950738  10.45215254  12.56392464
Rh  14.45039828  12.61891401  12.01939419
Rh  14.57516496  12.01789305  9.70458453
Rh  12.17541811  13.40256942  12.04968531
Rh  11.28340027  10.61394049  10.20703254
Rh  13.58492814  9.90850497  10.26688212
Rh  11.39984415  11.17224434  12.57953957
13
# Structure 772   	  Energy =  -3.9896 eV/atom
Au  9.40711575  14.09133574  11.71486559
Au  10.32955773  9.46128269  11.66101969
Au  15.18281562  10.42734718  11.65699087
Au  10.52432568  11.89224627  12.94191368
Au  12.16479389  12.33076467  8.10522158
Au  14.25748420  15.05605170  11.67856092
Rh  12.69059880  10.35808163  12.64536518
Rh  12.56735677  10.58098187  10.25475689
Rh  10.55260793  11.93991078  10.27908826
Rh  11.89747158  13.96459816  10.34042596
Rh  13.78870903  12.53897816  12.73069474
Rh  11.94928563  14.14012812  12.73304865
Rh  13.85205637  12.59034501  10.37797549
13
# Structure 267   	  Energy =  -3.9893 eV/atom
Au  10.28091216  9.66186057  11.05686975
Au  14.49275968  15.05088966  11.02763926
Au  12.39284225  12.25642577  14.49861877
Au  15.04405690  10.26249364  11.01421271
Au  12.58163387  10.50214029  9.66245525
Au  9.60333366  14.43479632  11.00945794
Rh  14.06470348  12.53683134  12.27805227
Rh  14.10546250  12.63099849  9.87970279
Rh  12.57785210  10.62044718  12.31298848
Rh  10.65802576  12.11711066  12.30356952
Rh  10.57433259  12.17974082  9.90322756
Rh  12.15328106  13.98748385  12.29650529
Rh  12.13402620  14.03277975  9.92802027
13
# Structure 718   	  Energy =  -3.9881 eV/atom
Au  11.64560721  11.14069062  8.19291586
Au  13.13668804  11.25665275  13.09153452
Au  13.99820905  13.53455598  11.79265455
Au  13.76556009  8.84058332  11.95133525
Au  8.80503404  9.08697181  11.74741834
Au  8.97775549  13.73218125  11.76600606
Rh  11.60388262  12.97196253  10.30686978
Rh  11.45754854  13.30511389  12.68073213
Rh  13.20789494  11.15623799  10.43454049
Rh  9.90887861  11.40856110  12.77296286
Rh  11.24046606  9.36377808  12.82836067
Rh  9.86479269  11.34910202  10.42186704
Rh  11.40406312  9.52685616  10.44059178
13
# Structure 762   	  Energy =  -3.9879 eV/atom
Au  11.57502945  11.52253288  14.50571746
Au  13.72443292  8.91386282  11.02449546
Au  8.92624197  9.26370110  11.05625356
Au  14.12810896  13.71472114  10.91897441
Au  9.21796727  14.07449970  10.94727170
Au  11.34802208  9.58050458  9.73030749
Rh  13.24909094  11.39936978  9.86622946
Rh  11.38596017  9.79482902  12.36453362
Rh  13.21508700  11.36693186  12.23451540
Rh  9.81050552  11.61943342  12.32001799
Rh  11.64234714  13.17950691  12.25638869
Rh  11.60703181  13.15081094  9.88538838
Rh  9.71383125  11.63830389  9.91811913
13
# Structure 1104   	  Energy =  -3.9868 eV/atom
Au  11.71159020  14.62079641  12.03846816
Au  9.27741520  13.30982515  11.76817526
Au  15.92361565  11.93736812  11.77564618
Au  11.52586808  9.23161576  12.67840129
Au  9.23624455  10.57051575  11.74939578
Au  12.82970364  11.62107112  8.14947954
Rh  13.58314869  12.95410631  10.48294992
Rh  13.76214406  13.12113478  12.90336909
Rh  11.54040178  11.92176019  12.44777921
Rh  13.77680052  10.65231547  12.94705921
Rh  13.78148961  10.64112979  10.55046069
Rh  11.18280385  12.75522348  9.97785667
Rh  11.44492613  10.37754502  10.13274770
13
# Structure 760   	  Energy =  -3.9851 eV/atom
Au  11.73325235  15.75939228  11.47628943
Au  9.00521542  11.53634014  11.68083190
Au  13.09111302  9.05829222  11.86269274
Au  11.35647494  10.94526807  12.90389480
Au  12.72573434  12.03053050  8.11612368
Au  15.68779203  13.23144979  11.86770037
Rh  10.65317363  13.51248560  12.49884316
Rh  10.99005550  13.09967883  10.12078488
Rh  11.56108205  10.75788622  10.26648202
Rh  13.92009765  11.37455852  10.51174265
Rh  13.10422155  13.74924459  12.72991927
Rh  13.94572000  11.46047575  12.89478589
Rh  13.29502629  13.63984612  10.35315256
13
# Structure 608   	  Energy =  -3.9893 eV/atom
Au  12.19164065  12.27712115  14.53964387
Au  10.00578962  12.32410877  9.76811678
Au  14.54047492  9.72978214  10.86340944
Au  9.93345601  9.84320648  11.03339680
Au  14.59686771  14.81450202  10.86420304
Au  9.98644515  14.79461035  11.05582143
Rh  10.52265412  12.31102797  12.36681233
Rh  12.26113380  10.63134950  12.29198796
Rh  12.29918608  13.95234920  12.30414125
Rh  12.26120726  10.82822543  9.90091870
Rh  14.26911371  12.27589175  10.06063470
Rh  14.00118064  12.27212979  12.42052715
Rh  12.29421529  13.76757055  9.91166619
13
# Structure 1056   	  Energy =  -3.9825 eV/atom
Au  11.91489695  14.24467332  10.21550810
Au  8.98165968  10.56212171  11.38551210
Au  12.17090100  8.92123216  9.64918600
Au  9.72433286  13.17781588  11.54460786
Au  12.85560625  11.06544692  14.45903409
Au  16.22752445  11.36885895  10.56043042
Rh  12.26393625  12.55587660  12.29467595
Rh  11.19547631  11.44893499  10.06102578
Rh  11.56424883  10.20041802  12.14376678
Rh  13.55996931  11.30336737  9.61616826
Rh  14.31350204  13.28041474  10.78716732
Rh  14.72857852  11.87989176  12.76581198
Rh  13.89550957  9.98928958  11.51385161
13
# Structure 565   	  Energy =  -3.9824 eV/atom
Au  12.77051825  13.74627286  12.08919709
Au  13.27686535  8.55395280  12.00784858
Au  14.91488514  12.26954549  11.45844032
Au  8.40804258  10.61144853  13.05963296
Au  10.99249676  10.62701069  8.39948229
Au  10.23499580  14.62265438  11.94766222
Rh  12.99442915  11.11939682  12.96612255
Rh  11.03828420  9.70419220  13.27884701
Rh  10.92704023  9.39728172  10.89834714
Rh  12.68718281  10.90588205  10.58093792
Rh  9.28091870  11.12062183  10.55227555
Rh  10.59002632  12.06408402  12.62168947
Rh  11.06642224  12.71263629  10.14387139
13
# Structure 550   	  Energy =  -3.9823 eV/atom
Au  15.73036687  12.37921940  12.40190319
Au  15.22921370  10.17532649  10.79990335
Au  13.46023380  13.85405954  13.13476066
Au  12.19155886  12.68200781  8.38055711
Au  13.04095960  8.48623230  11.63424282
Au  8.61587786  11.38678395  12.27848221
Rh  13.17884658  11.19982877  12.41231684
Rh  13.93147446  12.67515972  10.48179937
Rh  12.46611036  10.55213503  10.02339478
Rh  11.91092006  14.01156561  10.85120019
Rh  10.88234359  9.99355996  12.01398922
Rh  11.09978938  12.54053516  12.72127768
Rh  10.42355193  11.98364289  10.33607640
13
# Structure 323   	  Energy =  -3.9822 eV/atom
Au  9.11115724  11.49310215  12.47825924
Au  8.95418709  13.60160966  10.38325324
Au  14.15834755  9.37376627  11.57569724
Au  13.72992250  14.16470796  11.36211541
Au  9.43975084  8.91364137  10.48949141
Au  11.17727416  11.64467623  14.35318595
Rh  10.33192094  11.36620936  10.07832328
Rh  11.17229757  13.23700068  11.98627880
Rh  11.41013740  9.92257298  12.12721528
Rh  13.52325552  11.65663593  10.04888161
Rh  12.97668239  11.71359453  12.33123138
Rh  11.72338650  13.27343387  9.63340438
Rh  12.05032123  9.71237793  9.79699177
13
# Structure 1035   	  Energy =  -3.9822 eV/atom
Au  15.81702239  11.60309151  12.01451842
Au  12.68097074  11.83204140  7.86730856
Au  11.28376004  9.00328771  12.01416524
Au  8.92501097  10.40775548  11.30128318
Au  9.28478712  13.10732855  10.79433011
Au  11.26088888  14.46605314  12.40295582
Rh  14.35587476  12.35274154  9.89158899
Rh  13.44353738  10.10397864  10.19276758
Rh  13.41866896  10.48241865  12.59956955
Rh  11.12466060  10.80716014  9.81642678
Rh  13.51534160  12.99001074  12.25329363
Rh  12.00930415  13.20808054  10.15537411
Rh  11.20021578  11.72335747  12.17784446
13
# Structure 670   	  Energy =  -3.9815 eV/atom
Au  8.80781405  13.66205545  10.98559524
Au  13.31341500  11.45306933  12.34207384
Au  11.39281012  11.40540432  14.35819121
Au  13.63537188  13.83986252  10.86088742
Au  13.87978275  9.10063401  10.88873763
Au  9.06238408  8.78687151  10.99276572
Rh  9.67627491  11.27235558  12.20873447
Rh  11.41578756  9.58375605  12.20511552
Rh  11.24062720  13.12856609  12.16375603
Rh  11.41533301  9.63884673  9.80037637
Rh  9.61254717  11.25439320  9.84040965
Rh  11.23339987  13.04940447  9.75966875
Rh  13.04279939  11.42967964  9.70052918
13
# Structure 231   	  Energy =  -3.9808 eV/atom
Au  8.46132998  12.22723509  10.56584776
Au  11.34965393  15.16748406  11.95006993
Au  13.42825734  12.81563356  8.58533369
Au  12.10208878  8.56812299  11.45675707
Au  14.70030650  11.68503679  13.07651328
Au  15.44187851  12.07066782  10.44770390
Rh  11.16754292  12.87239101  10.24969361
Rh  12.57730182  13.28879795  13.54968253
Rh  10.33653510  12.63376274  12.54044665
Rh  13.42562687  13.60595199  11.24266843
Rh  10.35475351  10.46746358  11.02108874
Rh  12.90318724  11.12010161  10.74337188
Rh  12.06655314  10.86788933  13.02144952
13
# Structure 1100   	  Energy =  -3.9805 eV/atom
Au  10.83200460  10.29387323  8.90123770
Au  9.07784708  11.81889061  10.42683337
Au  14.34702269  15.17255507  11.04474606
Au  15.80232703  10.62770246  10.71598585
Au  9.81304020  13.17419844  12.68891323
Au  11.88384359  9.67375240  14.16867742
Rh  13.23362394  10.48549225  9.98254488
Rh  11.66380070  12.63084364  10.11697321
Rh  13.98498327  12.55969117  11.33959601
Rh  12.07495486  14.25162316  11.86056014
Rh  11.31014011  10.80944446  11.69547071
Rh  12.36094407  12.25059003  13.33684635
Rh  13.79899787  10.20981194  12.45085496
13
# Structure 109   	  Energy =  -3.9804 eV/atom
Au  13.19603942  9.14854863  13.13711048
Au  15.35682653  10.12504056  11.76251576
Au  8.82604434  12.17005007  12.51707810
Au  15.58986732  12.59281008  10.70616936
Au  13.42718377  14.19664988  11.16537438
Au  11.56736458  10.58612935  8.32284967
Rh  11.07943696  10.73919290  12.80114890
Rh  11.87894765  9.33365193  10.77136780
Rh  11.34725408  13.24661761  12.54187667
Rh  9.86428514  10.68645652  10.49810663
Rh  11.28457295  12.60907008  10.21521672
Rh  13.44356214  11.91206264  12.73931144
Rh  13.22793414  11.30351325  10.43240859
