13
# Structure 627   	  Energy =  -5.3845 eV/atom
Rh  13.77943302  12.51234250  11.39497554
Rh  11.45338047  12.12279642  11.35189980
Rh  14.18682335  10.17417286  8.94311617
Rh  13.77660456  12.54480839  8.97933802
Rh  11.84237431  9.75899346  11.34317483
Rh  14.19238829  10.14248847  11.36223147
Rh  9.04166925  11.72398394  8.95145472
Rh  9.88300985  13.82605015  10.16093102
Rh  9.49233733  9.34910596  11.37370206
Rh  9.04199119  11.72740022  11.39265701
Rh  9.48796817  9.34700706  8.96646411
Rh  11.45496717  12.13545678  9.00067251
Rh  11.83853404  9.77181012  8.97592125
13
# Structure 636   	  Energy =  -5.3441 eV/atom
Rh  14.28662354  10.35245538  10.13760087
Rh  13.88838063  12.69001718  11.34615997
Rh  9.05248484  12.50254259  8.94319142
Rh  12.13368202  10.92384836  8.95419896
Rh  13.88754913  12.68100289  8.92237237
Rh  11.36699167  13.20299759  8.95938852
Rh  9.07084716  12.51392312  11.34121367
Rh  9.82515738  10.21757914  11.31025877
Rh  11.64626061  8.52167667  11.32418543
Rh  11.64007054  8.52073017  8.94675924
Rh  9.81529485  10.21086350  8.97939670
Rh  12.13846315  10.92939214  11.31392795
Rh  11.38038808  13.21505420  11.28751390
13
# Structure 665   	  Energy =  -5.3420 eV/atom
Rh  13.99461934  10.12680134  11.36605004
Rh  14.19880988  12.42044783  10.14591136
Rh  11.60760355  9.32681766  8.98010385
Rh  13.99159226  10.13168530  8.91570984
Rh  9.21136892  9.55708069  8.94060318
Rh  9.21659752  9.55450429  11.35280200
Rh  12.03896294  11.71016771  11.32003693
Rh  11.61104342  9.32274023  11.30189949
Rh  12.03623398  11.71395390  8.96754560
Rh  10.98436836  13.94995622  8.95224847
Rh  9.58837840  11.93160377  8.98032702
Rh  10.98831274  13.94753665  11.34012202
Rh  9.59303369  11.92940823  11.30843221
13
# Structure 796   	  Energy =  -5.3327 eV/atom
Rh  13.80873590  10.80769981  9.17540989
Rh  10.53982024  9.93503730  9.07230893
Rh  10.52976728  9.90279028  11.43501194
Rh  12.60767506  8.71786915  11.50832636
Rh  12.60711527  8.70423135  9.09942127
Rh  11.71510724  12.09798359  9.07136267
Rh  9.30678118  12.19181345  8.81519421
Rh  8.37183230  10.78028985  10.76094722
Rh  9.32110257  12.98972559  11.15722355
Rh  11.52811280  12.07991182  11.41477025
Rh  13.75492572  10.82942176  11.50184655
Rh  13.83007804  13.27038660  9.15391338
Rh  13.68977973  13.25229245  11.54457215
13
# Structure 476   	  Energy =  -5.3195 eV/atom
Rh  8.77729243  12.94603307  10.18607088
Rh  10.88092675  14.18553940  10.17598173
Rh  13.16817178  11.82286849  8.92264945
Rh  13.22605370  13.95591394  10.16302450
Rh  10.80309250  11.88754055  8.99634496
Rh  8.63087068  10.61079398  8.92620912
Rh  13.14727683  9.40347644  11.37720033
Rh  13.16507457  11.83181611  11.42182853
Rh  10.76175147  9.38442593  8.99069016
Rh  13.14747882  9.39063264  8.96880322
Rh  10.79415997  11.87587466  11.35488623
Rh  8.61879605  10.56922717  11.38804209
Rh  10.76215546  9.37522913  11.34491913
13
# Structure 437   	  Energy =  -5.3175 eV/atom
Rh  8.95133077  10.36290138  11.30104391
Rh  8.92157771  12.89324300  11.31772131
Rh  11.07651499  13.88810796  10.11897242
Rh  11.07711315  11.62531582  11.31642598
Rh  11.07762270  8.95203056  11.31217567
Rh  13.20371524  10.36342531  11.30043673
Rh  13.23251568  12.89363026  11.31800467
Rh  13.23005656  12.89504261  8.92200460
Rh  13.20398109  10.36306084  8.93898560
Rh  8.92350512  12.89435921  8.92210580
Rh  11.07684730  11.62367567  8.92299634
Rh  11.07713531  8.95191666  8.92653826
Rh  8.95026737  10.36242300  8.93975470
13
# Structure 671   	  Energy =  -5.3165 eV/atom
Rh  13.96228918  10.54029226  11.79287872
Rh  11.54175969  10.39354454  11.56575005
Rh  14.13685400  9.78359672  9.46407277
Rh  11.80241159  10.07137558  9.23667609
Rh  9.61575390  9.11185560  9.09025983
Rh  9.40680022  9.20021274  11.47157525
Rh  12.48963701  12.66785053  11.44005308
Rh  9.60786929  11.59021100  9.05461442
Rh  10.39722685  13.81048189  11.51622994
Rh  9.39268608  11.63120236  11.37177222
Rh  10.34906866  13.97186127  9.10772175
Rh  12.20903222  12.49882638  9.06314953
Rh  14.50543081  12.17962912  9.83054634
13
# Structure 642   	  Energy =  -5.3161 eV/atom
Rh  12.13766678  12.86765476  9.22584892
Rh  12.70587987  10.19070562  11.49889259
Rh  14.48876541  12.40974986  9.61606798
Rh  14.07358773  10.05994409  9.40259227
Rh  14.03993837  12.25585238  11.95025608
Rh  11.70806137  12.49449045  11.52662885
Rh  9.63122800  13.76000917  11.36821014
Rh  9.53936066  11.33260439  11.64688164
Rh  10.58481836  9.16245597  11.85248317
Rh  10.06993718  8.77028548  9.50564234
Rh  9.30363082  11.06624425  9.32680060
Rh  9.76838368  13.41192022  8.99544059
Rh  11.75752130  10.52553816  9.12967578
13
# Structure 770   	  Energy =  -5.3154 eV/atom
Rh  13.26465556  11.21090429  9.17921484
Rh  10.53181890  10.12298357  9.11754225
Rh  10.74403472  10.20767460  11.49083835
Rh  12.63467030  8.75789634  11.44228889
Rh  13.12583718  11.23014500  11.50014160
Rh  12.57613816  8.86723098  9.05305608
Rh  11.16465938  12.56035275  9.01586359
Rh  8.82394045  12.06093782  8.79866434
Rh  13.29493002  13.65864614  9.12337475
Rh  10.95631852  12.66407932  11.36868431
Rh  13.12431892  13.72095047  11.50638485
Rh  8.59615686  12.76087559  11.17393199
Rh  8.45595619  10.35808953  10.72045463
13
# Structure 374   	  Energy =  -5.3139 eV/atom
Rh  8.91696844  12.33483024  11.28067918
Rh  8.96672719  9.81998942  11.28818306
Rh  11.14397865  8.87284453  10.13551819
Rh  11.13527365  11.12092926  11.29026635
Rh  11.11939983  13.65848669  11.29425089
Rh  13.33899631  12.36164627  11.27117292
Rh  13.31539708  9.84429145  11.29437225
Rh  13.30896295  9.84861735  8.91835231
Rh  13.32512620  12.36275605  8.93042728
Rh  8.96354352  9.84261545  8.91210244
Rh  11.13331447  11.11925326  8.93758732
Rh  11.11922172  13.67941407  8.97449994
Rh  8.92533949  12.35072961  8.94223932
13
# Structure 103   	  Energy =  -5.3135 eV/atom
Rh  11.31851507  8.56195095  11.35053559
Rh  11.33529604  10.78540273  10.13320392
Rh  9.27729144  10.11745037  11.29955913
Rh  8.92709073  12.50886145  11.35840308
Rh  9.30030859  10.14482200  8.92828179
Rh  8.92876883  12.54033994  8.93923138
Rh  11.35101120  8.55347085  8.93148556
Rh  13.36899092  10.13243484  11.33997126
Rh  13.75624582  12.52067143  11.34599354
Rh  11.34205379  12.89907935  11.31774763
Rh  13.75912580  12.50704111  8.92566605
Rh  13.39014854  10.11587422  8.96800449
Rh  11.34559140  12.90758166  8.96261080
13
# Structure 420   	  Energy =  -5.3129 eV/atom
Rh  10.20595123  12.70129801  11.33222947
Rh  13.35902528  13.29965611  10.13659426
Rh  12.16008176  11.38644347  11.31667962
Rh  14.63912217  11.43804387  11.35556438
Rh  14.63794090  11.43742879  8.91663075
Rh  10.20399032  12.70072687  8.94185110
Rh  12.15866423  11.38646544  8.95677246
Rh  13.39618809  9.16962543  11.30609681
Rh  10.83705745  9.34098971  11.31730811
Rh  10.83627781  9.34096774  8.95577906
Rh  8.86792478  10.70671973  11.33652747
Rh  8.86615287  10.70614859  8.93834376
Rh  13.39696773  9.17074575  8.96800403
13
# Structure 253   	  Energy =  -5.3111 eV/atom
Rh  9.17546893  10.90909651  12.40445885
Rh  8.78810349  13.10931435  11.18009496
Rh  9.18332726  10.93042455  9.92676739
Rh  11.64152269  10.35018923  9.80983991
Rh  12.66287721  8.53089682  11.15761235
Rh  13.27055003  12.01738682  8.93516338
Rh  10.97776789  12.76077594  9.86776729
Rh  10.09489359  8.84081908  11.16787032
Rh  10.96926993  12.73658160  12.43827217
Rh  13.21460511  12.06198385  13.44143037
Rh  11.63896416  10.32565635  12.56228413
Rh  13.77830326  10.88016261  11.20546054
Rh  13.09026531  13.24748388  11.16836199
13
# Structure 561   	  Energy =  -5.3091 eV/atom
Rh  6.65678295  7.32589783  6.45811225
Rh  6.65255346  7.33511963  8.84327729
Rh  8.86852520  8.49423680  8.88180149
Rh  8.79036837  6.27574809  7.65447375
Rh  11.01268436  7.20030323  6.45653640
Rh  8.86973363  8.49105807  6.41796630
Rh  11.01208015  7.19874880  8.83954421
Rh  6.71958564  9.82547673  6.46860773
Rh  8.97877644  11.07089107  6.47455924
Rh  11.12851569  9.70077287  8.83565813
Rh  8.97468911  11.07359822  8.81859916
Rh  6.71398778  9.83178179  8.82410699
Rh  11.13318947  9.70229237  6.47364127
13
# Structure 448   	  Energy =  -5.3068 eV/atom
Rh  11.17684100  10.32567719  9.05500725
Rh  11.64793505  7.90256556  8.87573165
Rh  9.53958556  6.44935038  6.63687490
Rh  9.12682899  8.93854734  6.58516797
Rh  11.53186680  7.98322035  6.52660420
Rh  11.11313492  10.47635594  6.66495683
Rh  9.56931506  6.48380468  8.98287001
Rh  6.79967256  9.92269954  6.59987904
Rh  8.83664918  11.13489146  7.77406876
Rh  6.77380403  9.88258128  9.02290470
Rh  7.11915901  7.42224436  6.61910941
Rh  7.14556072  7.40579274  8.96628889
Rh  9.12600164  8.95144374  8.98500499
13
# Structure 569   	  Energy =  -5.3064 eV/atom
Rh  13.38329194  9.84635858  8.95817943
Rh  13.38263871  9.77555572  11.34954356
Rh  11.23845940  11.08333420  9.03321848
Rh  9.01201785  9.98231911  8.96169242
Rh  9.05330664  9.89158807  11.36098119
Rh  11.18680898  8.85060692  10.28557810
Rh  13.51697935  12.31083316  11.39888878
Rh  11.34342710  13.66302496  9.05303009
Rh  13.49796803  12.32672583  9.04251155
Rh  11.36291145  13.65041965  11.38630738
Rh  9.08743241  12.45797071  9.06724544
Rh  9.09394221  12.42364617  11.41886379
Rh  11.25494789  11.10187942  11.44220881
13
# Structure 304   	  Energy =  -5.3063 eV/atom
Rh  9.02654752  11.74656775  11.13681931
Rh  11.56618188  11.50112353  11.34633082
Rh  12.62374806  9.17600042  11.09085225
Rh  11.39446151  10.00846042  8.99571677
Rh  8.88699726  10.33752761  8.99817349
Rh  10.02007415  9.46537084  11.10143036
Rh  10.57168390  13.85261156  11.08989798
Rh  11.88633340  14.35577451  8.94309017
Rh  13.05800978  13.57271137  11.09779603
Rh  14.09714349  11.18536522  11.13732689
Rh  12.91968527  12.07186524  9.02994842
Rh  10.36342237  12.35843137  9.02083217
Rh  13.91330441  9.77701466  8.98434683
13
# Structure 646   	  Energy =  -5.3042 eV/atom
Rh  10.84672234  11.88709460  9.31701107
Rh  8.84511343  10.46919594  9.09641236
Rh  11.21964022  9.46901385  9.40436641
Rh  13.53611181  9.87939966  8.84314619
Rh  9.37977632  9.91523636  11.48221572
Rh  14.12684075  9.84828369  11.18488793
Rh  11.87749114  9.31838169  11.75623630
Rh  11.67873884  14.17823762  9.33147689
Rh  8.91628309  12.40592104  10.81348762
Rh  13.22080967  12.26416295  9.00648346
Rh  11.93802119  14.02628911  11.68359584
Rh  13.56220196  12.18604394  11.32350669
Rh  11.19438274  11.67556955  11.66091126
13
# Structure 358   	  Energy =  -5.3023 eV/atom
Rh  12.32256468  9.85168926  11.42585831
Rh  12.31018101  9.87601520  9.03981139
Rh  14.58188582  9.61680882  10.22637190
Rh  13.97801904  11.77873145  11.49489203
Rh  13.96663631  11.79749396  9.00390157
Rh  12.80329309  13.90083162  10.24951970
Rh  11.52428362  12.19709252  11.55524019
Rh  10.00467717  9.21477766  11.42819358
Rh  9.98966313  9.23975680  9.03598073
Rh  9.18125634  11.49603253  11.50435600
Rh  9.15218265  11.51578609  9.02174381
Rh  9.98263331  13.69620093  10.25494817
Rh  11.50696511  12.22484211  8.91024514
13
# Structure 164   	  Energy =  -5.3014 eV/atom
Rh  10.94263312  8.37520792  11.17216336
Rh  12.32158980  9.99731644  12.42855585
Rh  8.97054786  12.75615475  9.94924492
Rh  9.77961681  10.41259930  10.00972136
Rh  8.97414300  12.79683580  12.32996363
Rh  11.36011010  12.41794102  12.40099555
Rh  9.78583292  10.44648882  12.34803962
Rh  11.35811537  12.39311445  9.91853806
Rh  14.32227382  10.96607507  11.15078461
Rh  13.62372645  11.92068278  13.39477300
Rh  13.61683769  11.92672474  8.91549946
Rh  13.38677190  13.24880202  11.15636361
Rh  12.32172897  9.98407409  9.87955196
