13
# Structure 27   	  Energy =  -2.3405 eV/atom
Au  12.85309853  16.85397267  9.14691511
Au  15.46466368  16.25477466  8.87469732
Au  10.96616540  14.96795269  9.07077722
Au  13.64042672  14.26138762  8.95365312
Au  9.15399697  12.96997077  9.08802791
Au  9.93029655  10.36086967  9.07101204
Au  11.77240370  12.34282056  8.98533660
Au  16.97219055  10.96433071  9.06373243
Au  18.80307752  12.83112878  9.21609853
Au  16.30327630  13.69614067  9.00377949
Au  14.37381595  11.68575257  8.89843283
Au  15.13845749  9.05308994  8.98654686
Au  12.50904952  9.68406921  9.05410456
13
# Structure 954   	  Energy =  -2.3326 eV/atom
Au  11.80940061  13.35353009  9.08270214
Au  10.26228254  15.60905572  9.04710372
Au  9.14522869  13.12378358  8.86368224
Au  15.49016984  16.43454742  9.07311029
Au  12.88143727  15.85360892  9.14361943
Au  14.51155068  13.70456864  9.13191013
Au  17.07046422  14.35215000  9.04453383
Au  18.73541821  12.37997157  8.88098376
Au  10.62626699  10.87633896  9.03586497
Au  13.40808384  11.21126662  9.07149959
Au  16.19355663  11.50328303  9.04142100
Au  12.25144215  8.74962379  9.09564209
Au  14.95514735  9.07184174  9.12382041
13
# Structure 1134   	  Energy =  -2.3290 eV/atom
Au  13.20071349  14.08081956  8.96260491
Au  10.48076731  14.46500255  9.03465323
Au  12.07489707  16.62850782  8.99976497
Au  14.68101148  16.31048353  9.01846219
Au  18.44438413  13.26441812  9.13425155
Au  15.83748839  13.81940218  9.02854102
Au  14.31780057  11.50075575  8.87921566
Au  16.96494830  11.08965179  8.97371146
Au  15.44636512  8.97420710  9.04107195
Au  12.80487530  9.29484556  9.02554802
Au  9.02132277  12.24554391  9.10554762
Au  11.67636463  11.94498933  8.94008531
Au  10.17483601  9.76723179  9.05223258
13
# Structure 1087   	  Energy =  -2.3119 eV/atom
Au  12.07440934  12.24514958  8.89913583
Au  13.96471381  14.19244403  8.86420093
Au  11.11980334  14.71952115  8.88951762
Au  9.39222660  12.62491975  8.89273554
Au  12.91808749  16.69078402  8.89074434
Au  10.33346308  10.16754903  8.88585524
Au  15.50556481  16.35335129  8.89600680
Au  12.86424581  9.63325098  8.88519743
Au  17.44380935  10.79293213  8.89883359
Au  19.27758706  12.77526709  8.88199729
Au  16.74758748  13.66888869  8.89417561
Au  15.39642702  9.07625134  8.88640637
Au  14.76517877  11.74756425  8.89590013
13
# Structure 28   	  Energy =  -2.3092 eV/atom
Au  12.84825253  13.75126548  11.77379602
Au  13.92504149  16.11232635  10.91178830
Au  11.75847067  15.16246059  9.53029399
Au  11.95542065  12.42704860  8.99468972
Au  14.31654613  13.97408054  9.31829724
Au  14.50473741  11.34132122  9.34450902
Au  10.63004887  12.22791881  11.72801278
Au  7.99007222  12.03625421  10.89530058
Au  9.56792227  13.72410804  9.51236719
Au  9.83303050  10.66211227  9.50652864
Au  13.07445467  11.07168127  11.84032254
Au  14.60234137  9.05275461  10.77394519
Au  12.26330623  9.66522321  9.49879874
13
# Structure 1076   	  Energy =  -2.3081 eV/atom
Au  18.18091696  14.04873100  9.12081850
Au  15.81042624  12.81157863  8.99484574
Au  18.06785600  11.33884332  8.90824173
Au  15.92933379  15.53934704  9.06132232
Au  11.15151349  15.53601461  9.16085635
Au  13.53559209  14.23092044  9.02332795
Au  11.26184064  12.80618208  8.99068643
Au  13.53743268  11.40225897  8.98007116
Au  11.27981346  9.99037782  9.03877164
Au  8.98370425  11.34866652  8.96744856
Au  13.52330344  8.55745759  9.22968385
Au  8.89608674  14.06387615  9.01934948
Au  15.78092267  9.97349185  9.05023686
13
# Structure 37   	  Energy =  -2.3069 eV/atom
Au  12.27322682  12.08152281  11.83092430
Au  13.51315805  11.34437898  8.99305259
Au  10.91770899  11.97461274  8.95253059
Au  12.75565698  13.91902589  8.80879926
Au  15.08796681  9.19676087  9.67797214
Au  8.30079279  11.54017287  9.71857738
Au  13.78701850  16.14921741  9.97294813
Au  9.77426873  13.23226749  11.23477019
Au  14.43505939  13.76909253  11.09919737
Au  12.69829599  9.45277270  10.99190878
Au  10.23775148  10.29523678  11.15591152
Au  11.85643325  14.81370982  11.39136367
Au  14.93391722  11.21440412  11.45348907
13
# Structure 29   	  Energy =  -2.3055 eV/atom
Au  13.01441136  10.21549732  8.84590213
Au  12.98942625  12.97472004  8.94151174
Au  14.99273843  14.14635344  10.40540151
Au  15.04193393  11.48624693  10.39087118
Au  12.98959572  10.25918503  11.88865815
Au  12.92718136  13.02092199  11.80153841
Au  14.75763142  8.80713372  10.40392772
Au  10.63736352  11.57251517  11.83676410
Au  8.75825059  10.07945185  10.36459203
Au  10.67384856  11.55357767  8.96994968
Au  8.55592444  12.77999371  10.38705178
Au  10.87498841  14.15652572  10.30586872
Au  11.15418252  8.87930841  10.38252661
13
# Structure 142   	  Energy =  -2.3054 eV/atom
Au  13.06161080  8.87091186  9.92745881
Au  10.45451793  9.01405323  9.43823126
Au  12.03151595  11.31355166  9.41083873
Au  10.94485885  13.66612211  9.28200354
Au  8.33693232  13.84914404  9.10997244
Au  9.30834289  11.35205439  9.12453412
Au  9.96314127  16.04716774  9.69315486
Au  16.35212421  13.59222952  9.26879642
Au  14.69481740  11.20608081  9.47796547
Au  17.27639536  11.20893854  9.03136942
Au  15.47074842  15.99902019  9.49153004
Au  12.69745499  16.10909360  9.57822288
Au  13.61237910  13.62167429  9.45399701
13
# Structure 47   	  Energy =  -2.3052 eV/atom
Au  13.07263378  10.34742897  8.81479471
Au  13.06946749  13.08880576  8.96355764
Au  15.17680736  14.10614776  10.39318467
Au  15.12955649  11.44875213  10.38836845
Au  13.04109261  10.37884371  11.94338316
Au  13.02757497  13.11984983  11.78201919
Au  14.62592073  8.77534796  10.40564040
Au  10.70553594  11.68487241  11.83186286
Au  8.92471416  10.08672828  10.36393446
Au  10.73654127  11.66253921  8.94933735
Au  8.57500905  12.78640407  10.39239581
Au  10.89984903  14.19304799  10.33385388
Au  11.33007547  8.90811928  10.37472943
13
# Structure 1056   	  Energy =  -2.3049 eV/atom
Au  10.74248183  9.39343708  9.01661969
Au  9.63738695  13.95201612  8.98008502
Au  11.50946690  12.04620268  9.01138761
Au  12.22027459  14.71641236  9.00040204
Au  8.89823625  11.33711096  8.90332986
Au  13.31864400  10.12650221  9.04069446
Au  16.74509653  13.59789661  8.99074696
Au  19.38416154  13.88991425  8.96820047
Au  18.51086899  11.43514859  8.96464050
Au  15.89480618  10.72057514  9.00480706
Au  17.85471272  8.93920907  8.96293243
Au  14.78600948  15.42433465  8.99908952
Au  14.17642279  12.78224014  9.02485438
13
# Structure 118   	  Energy =  -2.3100 eV/atom
Au  14.38390259  15.72731133  10.29207195
Au  17.00991108  15.23175728  10.23595081
Au  17.95932371  12.70894125  9.72933615
Au  15.32831675  13.19175126  9.74369739
Au  13.63075432  11.13657856  9.72478308
Au  14.57527656  8.60442531  10.02666990
Au  16.30445094  10.59549925  9.53307261
Au  10.95481514  11.41949634  10.22477873
Au  12.38483769  9.44457327  11.39032540
Au  8.64389958  12.08597200  9.08003178
Au  12.68253052  13.61470211  10.03206539
Au  10.06241212  14.14197747  9.85291098
Au  11.70155997  16.12931653  10.50863377
13
# Structure 318   	  Energy =  -2.3023 eV/atom
Au  10.09923762  15.69107112  10.73048145
Au  11.90538811  14.18462784  9.51528986
Au  9.16738197  10.47968698  10.33050628
Au  9.37841244  13.15463774  10.24707588
Au  13.74003532  12.52751742  8.44811282
Au  14.53343042  14.78209667  9.91138315
Au  12.63199000  16.68484022  10.25218468
Au  16.39311864  9.74923029  10.63401756
Au  13.87086234  10.23806150  10.05137245
Au  11.49307538  11.51797138  9.52665394
Au  15.83344822  12.28812405  10.23603362
Au  11.48773708  8.97489242  10.36121945
Au  17.09359639  14.59875960  10.49280135
13
# Structure 32   	  Energy =  -2.3022 eV/atom
Au  13.79978565  16.50147252  9.49019626
Au  15.86763514  14.79901855  9.42860094
Au  11.29783838  15.41371892  9.68421265
Au  13.45750511  14.03577256  10.57329172
Au  8.97425932  14.05558034  9.57259948
Au  11.15807185  12.68610491  10.32801493
Au  13.45034299  11.32317290  10.57149692
Au  15.71017398  12.67438764  11.18295327
Au  17.57084882  12.67093840  9.17786084
Au  11.27769493  9.95580253  9.69721019
Au  13.77379666  8.86061784  9.47459527
Au  15.85481180  10.54960456  9.42708226
Au  8.96061970  11.32725619  9.59222399
13
# Structure 39   	  Energy =  -2.3016 eV/atom
Au  11.19803936  10.90197889  8.85922858
Au  9.95348791  8.76642319  10.22193755
Au  11.28154212  11.00466608  11.70225275
Au  8.86427224  11.25055235  10.35374404
Au  12.45030342  13.30972320  8.87939377
Au  10.29269107  13.51705674  10.54747026
Au  12.74892721  13.35888244  11.75028183
Au  14.01848160  10.95523661  11.77246974
Au  12.59706965  8.82508549  10.36870797
Au  13.92484661  10.96275800  8.93171595
Au  14.90258245  13.49870366  10.07844888
Au  15.24062619  8.77556595  10.43603537
Au  16.35686116  11.24762487  10.25774780
13
# Structure 1025   	  Energy =  -2.3009 eV/atom
Au  10.99334277  11.24683228  9.13563460
Au  8.49436523  11.92384711  9.44185189
Au  12.16355559  8.83230875  8.98007943
Au  11.67877231  15.98658697  9.14762988
Au  9.73384048  14.18859879  8.88052047
Au  14.22091806  15.62733980  9.09313080
Au  16.83205778  15.21820205  9.16408002
Au  14.93220021  8.59291911  9.13147186
Au  13.65479170  11.03112376  9.07571300
Au  16.38158356  10.69973820  9.17247854
Au  15.11056437  13.13133417  9.17583795
Au  17.88817552  12.82685898  9.16820625
Au  12.41413523  13.40822310  9.10810207
13
# Structure 545   	  Energy =  -2.3008 eV/atom
Au  17.09496578  11.21415650  8.86000000
Au  11.64379722  11.21415650  8.86000000
Au  15.73205869  13.58150979  8.86000000
Au  13.00670431  8.84680321  8.86000000
Au  13.00670431  13.58150979  8.86000000
Au  15.73205869  8.84680321  8.86000000
Au  10.29195454  8.92593029  8.86000000
Au  18.44680846  13.50238271  8.86000000
Au  18.44680846  8.92593029  8.86000000
Au  10.29195454  13.50238271  8.86000000
Au  19.87926336  11.21415650  8.86000000
Au  8.85949964  11.21415650  8.86000000
Au  14.36938150  11.21415650  8.86000000
13
# Structure 981   	  Energy =  -2.3002 eV/atom
Au  14.94111421  15.84314459  8.91784225
Au  17.65654114  9.39008602  8.88860950
Au  15.25098161  10.41392465  8.91140748
Au  17.53652437  12.02412100  8.90295851
Au  15.07282410  13.20178015  8.91030234
Au  17.43372245  14.63410153  8.91634497
Au  12.61970718  14.37156872  8.91497245
Au  8.29994232  11.05259709  8.88181824
Au  10.27772893  12.84534155  8.90447362
Au  10.24489620  15.48151634  8.91894739
Au  12.88448032  11.65007200  8.92185284
Au  10.69822073  10.08063046  8.91839482
Au  13.02125181  8.88213889  8.95359890
13
# Structure 637   	  Energy =  -2.3001 eV/atom
Au  12.43665081  15.19015195  9.36906929
Au  9.75641293  15.10834596  9.22030931
Au  15.04429425  15.28992327  9.65310846
Au  16.68526394  12.98463862  9.42163492
Au  17.63637015  15.42565024  9.87685176
Au  8.73271227  12.62240852  9.49967263
Au  9.99503407  10.24456292  9.62098083
Au  11.32130169  12.73105007  9.21932889
Au  13.97110721  12.85338425  9.16374658
Au  12.64494770  10.41122325  9.41582781
Au  15.38229358  10.55217241  9.36130134
Au  14.08889076  8.27239904  9.85466031
Au  17.98004514  10.72670350  8.87610625
13
# Structure 641   	  Energy =  -2.2978 eV/atom
Au  9.81338266  13.22385857  9.46014195
Au  16.36132475  15.97998189  9.49920751
Au  13.71899875  15.87217610  9.56055265
Au  10.97524736  15.56489781  9.65381024
Au  12.13923460  17.90042486  10.08616378
Au  15.12960416  13.54857447  9.24406055
Au  16.72422612  11.32623290  9.56339483
Au  17.81174802  13.68433874  9.06050200
Au  8.68684892  10.81995911  9.41480072
Au  13.94269881  11.04966918  9.52440556
Au  11.29647700  10.83405761  9.20383141
Au  12.49020673  13.32000394  9.31654548
Au  15.54973362  9.13187631  10.39994724
